Automatically generated mesh
      16
Reciprocal lattice
    0.12500000000000    0.12500000000000    0.12500000000000             4
    0.37500000000000    0.12500000000000    0.12500000000000             4
    0.12500000000000    0.37500000000000    0.12500000000000             4
    0.37500000000000    0.37500000000000    0.12500000000000             4
    0.12500000000000   -0.37500000000000    0.12500000000000             4
    0.37500000000000   -0.37500000000000    0.12500000000000             4
    0.12500000000000   -0.12500000000000    0.12500000000000             4
    0.37500000000000   -0.12500000000000    0.12500000000000             4
    0.12500000000000    0.12500000000000    0.37500000000000             4
    0.37500000000000    0.12500000000000    0.37500000000000             4
    0.12500000000000    0.37500000000000    0.37500000000000             4
    0.37500000000000    0.37500000000000    0.37500000000000             4
    0.12500000000000   -0.37500000000000    0.37500000000000             4
    0.37500000000000   -0.37500000000000    0.37500000000000             4
    0.12500000000000   -0.12500000000000    0.37500000000000             4
    0.37500000000000   -0.12500000000000    0.37500000000000             4
Tetrahedra
       172    0.00260416666667
         2         1         2         4         9
         2         1         3         4         9
         2         3         4         9        11
         2         2         4         9        10
         2         4         9        10        12
         2         4         9        11        12
         2         2         2         4        10
         2         2         4         4        10
         2         4         4        10        12
         2         2         4        10        10
         2         4        10        10        12
         2         4        10        12        12
         2         1         2         3        10
         2         2         3         4        10
         2         3         4        10        12
         2         1         3         9        10
         2         3         9        10        11
         2         3        10        11        12
         2         1         1         3         9
         2         1         3         3         9
         2         3         3         9        11
         2         1         3         9         9
         2         3         9         9        11
         2         3         9        11        11
         2         3         4         6        11
         2         3         5         6        11
         2         5         6        11        13
         2         4         6        11        12
         2         6        11        12        14
         2         6        11        13        14
         2         4         4         6        12
         2         4         6         6        12
         2         6         6        12        14
         2         4         6        12        12
         2         6        12        12        14
         2         6        12        14        14
         2         3         4         5        12
         2         4         5         6        12
         2         5         6        12        14
         2         3         5        11        12
         2         5        11        12        13
         2         5        12        13        14
         2         3         3         5        11
         2         3         5         5        11
         2         5         5        11        13
         2         3         5        11        11
         2         5        11        11        13
         2         5        11        13        13
         2         5         6         8        13
         2         5         7         8        13
         2         7         8        13        15
         2         6         8        13        14
         2         8        13        14        16
         2         8        13        15        16
         2         6         6         8        14
         2         6         8         8        14
         2         8         8        14        16
         2         6         8        14        14
         2         8        14        14        16
         2         8        14        16        16
         2         5         6         7        14
         2         6         7         8        14
         2         7         8        14        16
         2         5         7        13        14
         2         7        13        14        15
         2         7        14        15        16
         2         5         5         7        13
         2         5         7         7        13
         2         7         7        13        15
         2         5         7        13        13
         2         7        13        13        15
         2         7        13        15        15
         2         2         7         8        15
         2         1         2         7        15
         2         1         2         9        15
         2         2         8        15        16
         2         2        10        15        16
         2         2         9        10        15
         2         2         8         8        16
         2         2         2         8        16
         2         2         2        10        16
         2         2         8        16        16
         2         2        10        16        16
         2         2        10        10        16
         2         1         7         8        16
         2         1         2         8        16
         2         1         2        10        16
         2         1         7        15        16
         2         1         9        15        16
         2         1         9        10        16
         2         1         7         7        15
         2         1         1         7        15
         2         1         1         9        15
         2         1         7        15        15
         2         1         9        15        15
         2         1         9         9        15
         2         9        10        12        15
         2         9        11        12        15
         2        11        12        13        15
         2        10        12        15        16
         2        12        14        15        16
         2        12        13        14        15
         2        10        10        12        16
         2        10        12        12        16
         2        12        12        14        16
         2        10        12        16        16
         2        12        14        16        16
         2        12        14        14        16
         2         9        10        11        16
         2        10        11        12        16
         2        11        12        14        16
         2         9        11        15        16
         2        11        13        15        16
         2        11        13        14        16
         2         9         9        11        15
         2         9        11        11        15
         2        11        11        13        15
         2         9        11        15        15
         2        11        13        15        15
         2        11        13        13        15
         4        11        12        13        14
         4        11        13        13        14
         4        12        13        14        14
         2        12        12        14        14
         4        12        14        14        14
         2        11        11        13        13
         4        11        13        13        13
         4         9        10        15        16
         4         9         9        10        15
         4         9        10        10        16
         2        10        10        16        16
         4        10        10        10        16
         2         9         9        15        15
         4         9         9         9        15
         2         1         6         7         8
         2         1         5         6         7
         2         1         3         5         6
         2         1         2         6         8
         2         1         2         4         6
         2         1         3         4         6
         2         2         6         8         8
         2         2         6         6         8
         2         2         4         6         6
         2         2         2         6         8
         2         2         2         4         6
         2         2         4         4         6
         2         2         5         7         8
         2         2         5         6         8
         2         2         4         5         6
         2         1         2         5         7
         2         1         2         3         5
         2         2         3         4         5
         2         1         5         7         7
         2         1         5         5         7
         2         1         3         5         5
         2         1         1         5         7
         2         1         1         3         5
         2         1         3         3         5
         4         3         4         5         6
         4         3         3         4         5
         4         3         4         4         6
         2         4         4         6         6
         4         4         4         4         6
         2         3         3         5         5
         4         3         3         3         5
         4         1         2         7         8
         4         1         7         7         8
         4         2         7         8         8
         2         2         2         8         8
         4         2         8         8         8
         2         1         1         7         7
         4         1         7         7         7
