<?xml version="1.0" encoding="ISO-8859-1"?>
<modeling>
 <generator>
  <i name="program" type="string">vasp </i>
  <i name="version" type="string">5.2.11  </i>
  <i name="subversion" type="string">01Dec10 complex  parallel </i>
  <i name="platform" type="string">unknown </i>
  <i name="date" type="string">2011 08 11 </i>
  <i name="time" type="string">13:00:58 </i>
 </generator>
 <incar>
  <i type="string" name="SYSTEM"> RubyVaspy :: B O Zn Tb</i>
  <i type="string" name="PREC">accurate</i>
  <i type="string" name="ALGO"> FAST</i>
  <i type="int" name="ISPIN">     2</i>
  <i type="int" name="ICHARG">     1</i>
  <i type="int" name="NELM">   100</i>
  <i type="int" name="NELMIN">     3</i>
  <i type="int" name="IBRION">     2</i>
  <i name="EDIFF">      0.00000200</i>
  <i type="int" name="NSW">   200</i>
  <i type="int" name="ISIF">     3</i>
  <i name="ENCUT">    520.00000000</i>
  <v name="MAGMOM">      0.60000000      0.60000000      0.60000000      0.60000000      0.60000000      0.60000000      0.60000000      0.60000000      0.60000000      0.60000000      0.60000000      0.60000000      0.60000000      0.60000000      0.60000000      0.60000000      0.60000000      0.60000000      0.60000000      0.60000000
      0.60000000      0.60000000      0.60000000      0.60000000      0.60000000      0.60000000      0.60000000      0.60000000      0.60000000      0.60000000      0.60000000      0.60000000      0.60000000      0.60000000      0.60000000      0.60000000      0.60000000      0.60000000      0.60000000      0.60000000
      0.60000000      0.60000000      0.60000000      0.60000000      0.60000000      0.60000000      0.60000000      0.60000000      0.60000000      0.60000000      0.60000000      0.60000000      0.60000000      0.60000000      0.60000000      0.60000000      0.60000000      0.60000000      0.60000000      0.60000000
      5.00000000      5.00000000      5.00000000      5.00000000      0.60000000      0.60000000      0.60000000      0.60000000</v>
  <i type="string" name="LREAL"> AUTO</i>
  <i type="int" name="ISMEAR">    -5</i>
  <i name="SIGMA">      0.05000000</i>
  <i type="logical" name="LWAVE"> T  </i>
  <i type="int" name="NELM">   100</i>
  <i type="logical" name="LPEAD"> F  </i>
  <i type="logical" name="LCALCPOL"> F  </i>
  <i type="logical" name="LCALCEPS"> F  </i>
  <v name="EFIELD_PEAD">      0.00000000      0.00000000      0.00000000</v>
  <i type="logical" name="LEFG"> F  </i>
  <i type="logical" name="LRHFATM"> F  </i>
  <i type="string" name="METAGGA">--</i>
  <i type="int" name="LMAXTAU">     0</i>
 </incar>
 <kpoints>
  <generation param="Monkhorst-Pack">
   <v type="int" name="divisions">       4        4        4 </v>
   <v name="usershift">      0.00000000       0.00000000       0.00000000 </v>
   <v name="genvec1">      0.25000000       0.00000000       0.00000000 </v>
   <v name="genvec2">      0.00000000       0.25000000       0.00000000 </v>
   <v name="genvec3">      0.00000000       0.00000000       0.25000000 </v>
   <v name="shift">      0.50000000       0.50000000       0.50000000 </v>
  </generation>
  <varray name="kpointlist" >
   <v>       0.12500000       0.12500000       0.12500000 </v>
   <v>       0.37500000       0.12500000       0.12500000 </v>
   <v>       0.12500000       0.37500000       0.12500000 </v>
   <v>       0.37500000       0.37500000       0.12500000 </v>
   <v>       0.12500000      -0.37500000       0.12500000 </v>
   <v>       0.37500000      -0.37500000       0.12500000 </v>
   <v>       0.12500000      -0.12500000       0.12500000 </v>
   <v>       0.37500000      -0.12500000       0.12500000 </v>
   <v>       0.12500000       0.12500000       0.37500000 </v>
   <v>       0.37500000       0.12500000       0.37500000 </v>
   <v>       0.12500000       0.37500000       0.37500000 </v>
   <v>       0.37500000       0.37500000       0.37500000 </v>
   <v>       0.12500000      -0.37500000       0.37500000 </v>
   <v>       0.37500000      -0.37500000       0.37500000 </v>
   <v>       0.12500000      -0.12500000       0.37500000 </v>
   <v>       0.37500000      -0.12500000       0.37500000 </v>
  </varray>
  <varray name="weights" >
   <v>       0.06250000 </v>
   <v>       0.06250000 </v>
   <v>       0.06250000 </v>
   <v>       0.06250000 </v>
   <v>       0.06250000 </v>
   <v>       0.06250000 </v>
   <v>       0.06250000 </v>
   <v>       0.06250000 </v>
   <v>       0.06250000 </v>
   <v>       0.06250000 </v>
   <v>       0.06250000 </v>
   <v>       0.06250000 </v>
   <v>       0.06250000 </v>
   <v>       0.06250000 </v>
   <v>       0.06250000 </v>
   <v>       0.06250000 </v>
  </varray>
  <varray name="tetrahedronlist"  type="int" >
   <v type="int" >        2        1        2        4        9 </v>
   <v type="int" >        2        1        3        4        9 </v>
   <v type="int" >        2        3        4        9       11 </v>
   <v type="int" >        2        2        4        9       10 </v>
   <v type="int" >        2        4        9       10       12 </v>
   <v type="int" >        2        4        9       11       12 </v>
   <v type="int" >        2        2        2        4       10 </v>
   <v type="int" >        2        2        4        4       10 </v>
   <v type="int" >        2        4        4       10       12 </v>
   <v type="int" >        2        2        4       10       10 </v>
   <v type="int" >        2        4       10       10       12 </v>
   <v type="int" >        2        4       10       12       12 </v>
   <v type="int" >        2        1        2        3       10 </v>
   <v type="int" >        2        2        3        4       10 </v>
   <v type="int" >        2        3        4       10       12 </v>
   <v type="int" >        2        1        3        9       10 </v>
   <v type="int" >        2        3        9       10       11 </v>
   <v type="int" >        2        3       10       11       12 </v>
   <v type="int" >        2        1        1        3        9 </v>
   <v type="int" >        2        1        3        3        9 </v>
   <v type="int" >        2        3        3        9       11 </v>
   <v type="int" >        2        1        3        9        9 </v>
   <v type="int" >        2        3        9        9       11 </v>
   <v type="int" >        2        3        9       11       11 </v>
   <v type="int" >        2        3        4        6       11 </v>
   <v type="int" >        2        3        5        6       11 </v>
   <v type="int" >        2        5        6       11       13 </v>
   <v type="int" >        2        4        6       11       12 </v>
   <v type="int" >        2        6       11       12       14 </v>
   <v type="int" >        2        6       11       13       14 </v>
   <v type="int" >        2        4        4        6       12 </v>
   <v type="int" >        2        4        6        6       12 </v>
   <v type="int" >        2        6        6       12       14 </v>
   <v type="int" >        2        4        6       12       12 </v>
   <v type="int" >        2        6       12       12       14 </v>
   <v type="int" >        2        6       12       14       14 </v>
   <v type="int" >        2        3        4        5       12 </v>
   <v type="int" >        2        4        5        6       12 </v>
   <v type="int" >        2        5        6       12       14 </v>
   <v type="int" >        2        3        5       11       12 </v>
   <v type="int" >        2        5       11       12       13 </v>
   <v type="int" >        2        5       12       13       14 </v>
   <v type="int" >        2        3        3        5       11 </v>
   <v type="int" >        2        3        5        5       11 </v>
   <v type="int" >        2        5        5       11       13 </v>
   <v type="int" >        2        3        5       11       11 </v>
   <v type="int" >        2        5       11       11       13 </v>
   <v type="int" >        2        5       11       13       13 </v>
   <v type="int" >        2        5        6        8       13 </v>
   <v type="int" >        2        5        7        8       13 </v>
   <v type="int" >        2        7        8       13       15 </v>
   <v type="int" >        2        6        8       13       14 </v>
   <v type="int" >        2        8       13       14       16 </v>
   <v type="int" >        2        8       13       15       16 </v>
   <v type="int" >        2        6        6        8       14 </v>
   <v type="int" >        2        6        8        8       14 </v>
   <v type="int" >        2        8        8       14       16 </v>
   <v type="int" >        2        6        8       14       14 </v>
   <v type="int" >        2        8       14       14       16 </v>
   <v type="int" >        2        8       14       16       16 </v>
   <v type="int" >        2        5        6        7       14 </v>
   <v type="int" >        2        6        7        8       14 </v>
   <v type="int" >        2        7        8       14       16 </v>
   <v type="int" >        2        5        7       13       14 </v>
   <v type="int" >        2        7       13       14       15 </v>
   <v type="int" >        2        7       14       15       16 </v>
   <v type="int" >        2        5        5        7       13 </v>
   <v type="int" >        2        5        7        7       13 </v>
   <v type="int" >        2        7        7       13       15 </v>
   <v type="int" >        2        5        7       13       13 </v>
   <v type="int" >        2        7       13       13       15 </v>
   <v type="int" >        2        7       13       15       15 </v>
   <v type="int" >        2        2        7        8       15 </v>
   <v type="int" >        2        1        2        7       15 </v>
   <v type="int" >        2        1        2        9       15 </v>
   <v type="int" >        2        2        8       15       16 </v>
   <v type="int" >        2        2       10       15       16 </v>
   <v type="int" >        2        2        9       10       15 </v>
   <v type="int" >        2        2        8        8       16 </v>
   <v type="int" >        2        2        2        8       16 </v>
   <v type="int" >        2        2        2       10       16 </v>
   <v type="int" >        2        2        8       16       16 </v>
   <v type="int" >        2        2       10       16       16 </v>
   <v type="int" >        2        2       10       10       16 </v>
   <v type="int" >        2        1        7        8       16 </v>
   <v type="int" >        2        1        2        8       16 </v>
   <v type="int" >        2        1        2       10       16 </v>
   <v type="int" >        2        1        7       15       16 </v>
   <v type="int" >        2        1        9       15       16 </v>
   <v type="int" >        2        1        9       10       16 </v>
   <v type="int" >        2        1        7        7       15 </v>
   <v type="int" >        2        1        1        7       15 </v>
   <v type="int" >        2        1        1        9       15 </v>
   <v type="int" >        2        1        7       15       15 </v>
   <v type="int" >        2        1        9       15       15 </v>
   <v type="int" >        2        1        9        9       15 </v>
   <v type="int" >        2        9       10       12       15 </v>
   <v type="int" >        2        9       11       12       15 </v>
   <v type="int" >        2       11       12       13       15 </v>
   <v type="int" >        2       10       12       15       16 </v>
   <v type="int" >        2       12       14       15       16 </v>
   <v type="int" >        2       12       13       14       15 </v>
   <v type="int" >        2       10       10       12       16 </v>
   <v type="int" >        2       10       12       12       16 </v>
   <v type="int" >        2       12       12       14       16 </v>
   <v type="int" >        2       10       12       16       16 </v>
   <v type="int" >        2       12       14       16       16 </v>
   <v type="int" >        2       12       14       14       16 </v>
   <v type="int" >        2        9       10       11       16 </v>
   <v type="int" >        2       10       11       12       16 </v>
   <v type="int" >        2       11       12       14       16 </v>
   <v type="int" >        2        9       11       15       16 </v>
   <v type="int" >        2       11       13       15       16 </v>
   <v type="int" >        2       11       13       14       16 </v>
   <v type="int" >        2        9        9       11       15 </v>
   <v type="int" >        2        9       11       11       15 </v>
   <v type="int" >        2       11       11       13       15 </v>
   <v type="int" >        2        9       11       15       15 </v>
   <v type="int" >        2       11       13       15       15 </v>
   <v type="int" >        2       11       13       13       15 </v>
   <v type="int" >        4       11       12       13       14 </v>
   <v type="int" >        4       11       13       13       14 </v>
   <v type="int" >        4       12       13       14       14 </v>
   <v type="int" >        2       12       12       14       14 </v>
   <v type="int" >        4       12       14       14       14 </v>
   <v type="int" >        2       11       11       13       13 </v>
   <v type="int" >        4       11       13       13       13 </v>
   <v type="int" >        4        9       10       15       16 </v>
   <v type="int" >        4        9        9       10       15 </v>
   <v type="int" >        4        9       10       10       16 </v>
   <v type="int" >        2       10       10       16       16 </v>
   <v type="int" >        4       10       10       10       16 </v>
   <v type="int" >        2        9        9       15       15 </v>
   <v type="int" >        4        9        9        9       15 </v>
   <v type="int" >        2        1        6        7        8 </v>
   <v type="int" >        2        1        5        6        7 </v>
   <v type="int" >        2        1        3        5        6 </v>
   <v type="int" >        2        1        2        6        8 </v>
   <v type="int" >        2        1        2        4        6 </v>
   <v type="int" >        2        1        3        4        6 </v>
   <v type="int" >        2        2        6        8        8 </v>
   <v type="int" >        2        2        6        6        8 </v>
   <v type="int" >        2        2        4        6        6 </v>
   <v type="int" >        2        2        2        6        8 </v>
   <v type="int" >        2        2        2        4        6 </v>
   <v type="int" >        2        2        4        4        6 </v>
   <v type="int" >        2        2        5        7        8 </v>
   <v type="int" >        2        2        5        6        8 </v>
   <v type="int" >        2        2        4        5        6 </v>
   <v type="int" >        2        1        2        5        7 </v>
   <v type="int" >        2        1        2        3        5 </v>
   <v type="int" >        2        2        3        4        5 </v>
   <v type="int" >        2        1        5        7        7 </v>
   <v type="int" >        2        1        5        5        7 </v>
   <v type="int" >        2        1        3        5        5 </v>
   <v type="int" >        2        1        1        5        7 </v>
   <v type="int" >        2        1        1        3        5 </v>
   <v type="int" >        2        1        3        3        5 </v>
   <v type="int" >        4        3        4        5        6 </v>
   <v type="int" >        4        3        3        4        5 </v>
   <v type="int" >        4        3        4        4        6 </v>
   <v type="int" >        2        4        4        6        6 </v>
   <v type="int" >        4        4        4        4        6 </v>
   <v type="int" >        2        3        3        5        5 </v>
   <v type="int" >        4        3        3        3        5 </v>
   <v type="int" >        4        1        2        7        8 </v>
   <v type="int" >        4        1        7        7        8 </v>
   <v type="int" >        4        2        7        8        8 </v>
   <v type="int" >        2        2        2        8        8 </v>
   <v type="int" >        4        2        8        8        8 </v>
   <v type="int" >        2        1        1        7        7 </v>
   <v type="int" >        4        1        7        7        7 </v>
  </varray>
  <i name="volumeweight">      0.00260417 </i>
 </kpoints>
 <parameters>
  <separator name="general" >
   <i type="string" name="SYSTEM">RubyVaspy :: B O Zn Tb</i>
   <i type="logical" name="LCOMPAT"> F  </i>
  </separator>
  <separator name="electronic" >
   <i type="string" name="PREC">accura</i>
   <i name="ENMAX">    520.00000000</i>
   <i name="ENAUG">    605.39200000</i>
   <i name="EDIFF">      0.00000200</i>
   <i type="int" name="IALGO">    68</i>
   <i type="int" name="IWAVPR">    11</i>
   <i type="int" name="NBANDS">   259</i>
   <i name="NELECT">    384.00000000</i>
   <i type="int" name="TURBO">     0</i>
   <i type="int" name="IRESTART">     0</i>
   <i type="int" name="NREBOOT">     0</i>
   <i type="int" name="NMIN">     0</i>
   <i name="EREF">      0.00000000</i>
   <separator name="electronic smearing" >
    <i type="int" name="ISMEAR">    -5</i>
    <i name="SIGMA">      0.05000000</i>
    <i name="KSPACING">      0.50000000</i>
    <i type="logical" name="KGAMMA"> T  </i>
   </separator>
   <separator name="electronic projectors" >
    <i type="logical" name="LREAL"> T  </i>
    <v name="ROPT">     -0.00025000     -0.00025000     -0.00025000     -0.00025000</v>
    <i type="int" name="LMAXPAW">  -100</i>
    <i type="int" name="LMAXMIX">     2</i>
   </separator>
   <separator name="electronic startup" >
    <i type="int" name="ISTART">     0</i>
    <i type="int" name="ICHARG">     1</i>
    <i type="int" name="INIWAV">     1</i>
   </separator>
   <separator name="electronic spin" >
    <i type="int" name="ISPIN">     2</i>
    <i type="logical" name="LNONCOLLINEAR"> F  </i>
    <v name="MAGMOM">      0.60000000      0.60000000      0.60000000      0.60000000      0.60000000      0.60000000      0.60000000      0.60000000      0.60000000      0.60000000      0.60000000      0.60000000      0.60000000      0.60000000      0.60000000      0.60000000      0.60000000      0.60000000      0.60000000      0.60000000
      0.60000000      0.60000000      0.60000000      0.60000000      0.60000000      0.60000000      0.60000000      0.60000000      0.60000000      0.60000000      0.60000000      0.60000000      0.60000000      0.60000000      0.60000000      0.60000000      0.60000000      0.60000000      0.60000000      0.60000000
      0.60000000      0.60000000      0.60000000      0.60000000      0.60000000      0.60000000      0.60000000      0.60000000      0.60000000      0.60000000      0.60000000      0.60000000      0.60000000      0.60000000      0.60000000      0.60000000      0.60000000      0.60000000      0.60000000      0.60000000
      5.00000000      5.00000000      5.00000000      5.00000000      0.60000000      0.60000000      0.60000000      0.60000000</v>
    <i name="NUPDOWN">     -1.00000000</i>
    <i type="logical" name="LSORBIT"> F  </i>
    <v name="SAXIS">      0.00000000      0.00000000      1.00000000</v>
    <i type="logical" name="LSPIRAL"> F  </i>
    <v name="QSPIRAL">      0.00000000      0.00000000      0.00000000</v>
    <i type="logical" name="LZEROZ"> F  </i>
   </separator>
   <separator name="electronic exchange-correlation" >
    <i type="logical" name="LASPH"> F  </i>
    <i type="logical" name="LMETAGGA"> F  </i>
   </separator>
   <separator name="electronic convergence" >
    <i type="int" name="NELM">   100</i>
    <i type="int" name="NELMDL">    -5</i>
    <i type="int" name="NELMIN">     3</i>
    <i name="ENINI">    520.00000000</i>
    <separator name="electronic convergence detail" >
     <i type="logical" name="LDIAG"> T  </i>
     <i type="logical" name="LSUBROT"> T  </i>
     <i name="WEIMIN">      0.00100000</i>
     <i name="EBREAK">      0.00000000</i>
     <i name="DEPER">      0.30000000</i>
     <i type="int" name="NRMM">     4</i>
     <i name="TIME">      0.40000000</i>
    </separator>
   </separator>
   <separator name="electronic mixer" >
    <i name="AMIX">      0.40000000</i>
    <i name="BMIX">      1.00000000</i>
    <i name="AMIN">      0.10000000</i>
    <i name="AMIX_MAG">      1.60000000</i>
    <i name="BMIX_MAG">      1.00000000</i>
    <separator name="electronic mixer details" >
     <i type="int" name="IMIX">     4</i>
     <i type="int" name="MAXMIX">   -45</i>
     <i name="WC">    100.00000000</i>
     <i type="int" name="INIMIX">     1</i>
     <i type="int" name="MIXPRE">     1</i>
     <i type="int" name="MREMOVE">     5</i>
    </separator>
   </separator>
   <separator name="electronic dipolcorrection" >
    <i type="logical" name="LDIPOL"> F  </i>
    <i type="logical" name="LMONO"> F  </i>
    <i type="int" name="IDIPOL">     0</i>
    <i name="EPSILON">      1.00000000</i>
    <v name="DIPOL">   -100.00000000   -100.00000000   -100.00000000</v>
    <i name="EFIELD">      0.00000000</i>
   </separator>
  </separator>
  <separator name="grids" >
   <i type="int" name="NGX">    60</i>
   <i type="int" name="NGY">    64</i>
   <i type="int" name="NGZ">    70</i>
   <i type="int" name="NGXF">   120</i>
   <i type="int" name="NGYF">   128</i>
   <i type="int" name="NGZF">   140</i>
   <i type="logical" name="ADDGRID"> F  </i>
  </separator>
  <separator name="ionic" >
   <i type="int" name="NSW">   200</i>
   <i type="int" name="IBRION">     2</i>
   <i type="int" name="ISIF">     3</i>
   <i name="PSTRESS">      0.00000000</i>
   <i name="EDIFFG">      0.00002000</i>
   <i type="int" name="NFREE">     1</i>
   <i name="POTIM">      0.50000000</i>
   <i name="SMASS">     -3.00000000</i>
  </separator>
  <separator name="ionic md" >
   <i name="TEBEG">      0.00010000</i>
   <i name="TEEND">      0.00010000</i>
   <i type="int" name="NBLOCK">     1</i>
   <i type="int" name="KBLOCK">   200</i>
   <i type="int" name="NPACO">   256</i>
   <i name="APACO">     16.00000000</i>
  </separator>
  <separator name="symmetry" >
   <i type="int" name="ISYM">     2</i>
   <i name="SYMPREC">      0.00001000</i>
  </separator>
  <separator name="dos" >
   <i type="logical" name="LORBIT"> F  </i>
   <v name="RWIGS">     -1.00000000     -1.00000000     -1.00000000     -1.00000000</v>
   <i type="int" name="NEDOS">   301</i>
   <i name="EMIN">     10.00000000</i>
   <i name="EMAX">    -10.00000000</i>
   <i name="EFERMI">      0.00000000</i>
  </separator>
  <separator name="writing" >
   <i type="int" name="NWRITE">     2</i>
   <i type="logical" name="LWAVE"> T  </i>
   <i type="logical" name="LCHARG"> T  </i>
   <i type="logical" name="LPARD"> F  </i>
   <i type="logical" name="LVTOT"> F  </i>
   <i type="logical" name="LVHAR"> F  </i>
   <i type="logical" name="LELF"> F  </i>
   <i type="logical" name="LOPTICS"> F  </i>
   <v name="STM">      0.00000000      0.00000000      0.00000000      0.00000000      0.00000000</v>
  </separator>
  <separator name="performance" >
   <i type="int" name="NPAR">     1</i>
   <i type="int" name="NSIM">     4</i>
   <i type="int" name="NBLK">    -1</i>
   <i type="logical" name="LPLANE"> T  </i>
   <i type="logical" name="LSCALAPACK"> T  </i>
   <i type="logical" name="LSCAAWARE"> F  </i>
   <i type="logical" name="LSCALU"> F  </i>
   <i type="logical" name="LASYNC"> F  </i>
   <i type="logical" name="LORBITALREAL"> F  </i>
  </separator>
  <separator name="miscellaneous" >
   <i type="int" name="IDIOT">     3</i>
   <i type="logical" name="LMUSIC"> F  </i>
   <v name="POMASS">     10.81100000     16.00000000     65.39000000    158.92500000</v>
   <v name="DARWINR">      0.00000000      0.00000000      0.00000000      0.00000000</v>
   <v name="DARWINV">      1.00000000      1.00000000      1.00000000      1.00000000</v>
   <i type="logical" name="LCORR"> T  </i>
  </separator>
  <i type="logical" name="GGA_COMPAT"> T  </i>
  <i type="logical" name="LBERRY"> F  </i>
  <i type="int" name="ICORELEVEL">     0</i>
  <i type="logical" name="LDAU"> F  </i>
  <i type="int" name="I_CONSTRAINED_M">     0</i>
  <separator name="electronic exchange-correlation" >
   <i type="string" name="GGA">--</i>
   <i type="int" name="VOSKOWN">     0</i>
   <i type="logical" name="LHFCALC"> F  </i>
   <i type="string" name="PRECFOCK"></i>
   <i type="logical" name="LHFONE"> F  </i>
   <i type="logical" name="LRHFCALC"> F  </i>
   <i type="logical" name="LTHOMAS"> F  </i>
   <i type="logical" name="LMODELHF"> F  </i>
   <i name="ENCUT4O">     -1.00000000</i>
   <i type="int" name="EXXOEP">     0</i>
   <i type="int" name="FOURORBIT">     0</i>
   <i name="AEXX">      0.00000000</i>
   <i name="HFALPHA">      0.00000000</i>
   <i name="ALDAX">      1.00000000</i>
   <i name="AGGAX">      1.00000000</i>
   <i name="ALDAC">      1.00000000</i>
   <i name="AGGAC">      1.00000000</i>
   <i type="int" name="NKREDX">     1</i>
   <i type="int" name="NKREDY">     1</i>
   <i type="int" name="NKREDZ">     1</i>
   <i type="logical" name="SHIFTRED"> F  </i>
   <i type="logical" name="ODDONLY"> F  </i>
   <i type="logical" name="EVENONLY"> F  </i>
   <i type="int" name="LMAXFOCK">     0</i>
   <i type="int" name="NMAXFOCKAE">     0</i>
   <i type="logical" name="LFOCKAEDFT"> F  </i>
   <i name="HFSCREEN">      0.00000000</i>
   <i name="HFSCREENC">      0.00000000</i>
  </separator>
  <separator name="model GW" >
   <i type="int" name="MODEL_GW">     0</i>
   <i name="MODEL_EPS0">      5.39877289</i>
   <i name="MODEL_ALPHA">      1.00000000</i>
  </separator>
  <separator name="linear response parameters" >
   <i type="logical" name="LEPSILON"> F  </i>
   <i type="logical" name="LRPA"> F  </i>
   <i type="logical" name="LNABLA"> F  </i>
   <i type="logical" name="LVEL"> F  </i>
   <i type="int" name="KINTER">     0</i>
   <i name="CSHIFT">      0.10000000</i>
   <i name="OMEGAMAX">     -1.00000000</i>
  </separator>
  <separator name="orbital magnetization" >
   <i type="logical" name="ORBITALMAG"> F  </i>
   <i type="logical" name="LMAGBLOCH"> F  </i>
   <i type="logical" name="LCHIMAG"> F  </i>
   <i type="logical" name="LGAUGE"> T  </i>
   <i type="int" name="MAGATOM">     0</i>
   <v name="MAGDIPOL">      0.00000000      0.00000000      0.00000000</v>
   <v name="AVECCONST">      0.00000000      0.00000000      0.00000000</v>
  </separator>
  <separator name="response functions" >
   <i type="logical" name="LRPA"> T  </i>
   <i type="logical" name="LTCTE"> F  </i>
   <i type="logical" name="LTETE"> F  </i>
   <i type="logical" name="L2ORDER"> F  </i>
   <i type="logical" name="LUSEW"> F  </i>
   <i name="ENCUTGW">     -2.00000000</i>
   <i name="ENCUTGWSOFT">     -2.00000000</i>
   <i name="ENCUTLF">     -1.00000000</i>
   <i type="int" name="LMAXMP2">    -1</i>
   <i name="SCISSOR">      0.00000000</i>
   <i type="int" name="NOMEGA">     0</i>
   <i type="int" name="NOMEGAR">     0</i>
   <i type="int" name="NBANDSGW">    -1</i>
   <i type="int" name="NBANDSO">    -1</i>
   <i type="int" name="NBANDSV">    -1</i>
   <i type="int" name="NELM">   100</i>
   <i type="int" name="DIM">     3</i>
   <i type="int" name="ANTIRES">     0</i>
   <i name="OMEGAMAX">    -30.00000000</i>
   <i name="OMEGATL">   -200.00000000</i>
   <i type="int" name="OMEGAGRID">     0</i>
   <i name="CSHIFT">     -0.10000000</i>
   <i type="logical" name="SELFENERGY"> F  </i>
   <i type="logical" name="LSPECTRAL"> F  </i>
   <i type="logical" name="ODDONLYGW"> F  </i>
   <i type="logical" name="EVENONLYGW"> F  </i>
   <i type="int" name="NKREDLFX">     1</i>
   <i type="int" name="NKREDLFY">     1</i>
   <i type="int" name="NKREDLFZ">     1</i>
   <i type="int" name="MAXMEM">  1800</i>
   <i type="int" name="TELESCOPE">     0</i>
  </separator>
 </parameters>
 <atominfo>
  <atoms>      68 </atoms>
  <types>       4 </types>
  <array name="atoms" >
   <dimension dim="1">ion</dimension>
   <field type="string">element</field>
   <field type="int">atomtype</field>
   <set>
    <rc><c>B </c><c>   1</c></rc>
    <rc><c>B </c><c>   1</c></rc>
    <rc><c>B </c><c>   1</c></rc>
    <rc><c>B </c><c>   1</c></rc>
    <rc><c>B </c><c>   1</c></rc>
    <rc><c>B </c><c>   1</c></rc>
    <rc><c>B </c><c>   1</c></rc>
    <rc><c>B </c><c>   1</c></rc>
    <rc><c>B </c><c>   1</c></rc>
    <rc><c>B </c><c>   1</c></rc>
    <rc><c>B </c><c>   1</c></rc>
    <rc><c>B </c><c>   1</c></rc>
    <rc><c>B </c><c>   1</c></rc>
    <rc><c>B </c><c>   1</c></rc>
    <rc><c>B </c><c>   1</c></rc>
    <rc><c>B </c><c>   1</c></rc>
    <rc><c>B </c><c>   1</c></rc>
    <rc><c>B </c><c>   1</c></rc>
    <rc><c>B </c><c>   1</c></rc>
    <rc><c>B </c><c>   1</c></rc>
    <rc><c>O </c><c>   2</c></rc>
    <rc><c>O </c><c>   2</c></rc>
    <rc><c>O </c><c>   2</c></rc>
    <rc><c>O </c><c>   2</c></rc>
    <rc><c>O </c><c>   2</c></rc>
    <rc><c>O </c><c>   2</c></rc>
    <rc><c>O </c><c>   2</c></rc>
    <rc><c>O </c><c>   2</c></rc>
    <rc><c>O </c><c>   2</c></rc>
    <rc><c>O </c><c>   2</c></rc>
    <rc><c>O </c><c>   2</c></rc>
    <rc><c>O </c><c>   2</c></rc>
    <rc><c>O </c><c>   2</c></rc>
    <rc><c>O </c><c>   2</c></rc>
    <rc><c>O </c><c>   2</c></rc>
    <rc><c>O </c><c>   2</c></rc>
    <rc><c>O </c><c>   2</c></rc>
    <rc><c>O </c><c>   2</c></rc>
    <rc><c>O </c><c>   2</c></rc>
    <rc><c>O </c><c>   2</c></rc>
    <rc><c>O </c><c>   2</c></rc>
    <rc><c>O </c><c>   2</c></rc>
    <rc><c>O </c><c>   2</c></rc>
    <rc><c>O </c><c>   2</c></rc>
    <rc><c>O </c><c>   2</c></rc>
    <rc><c>O </c><c>   2</c></rc>
    <rc><c>O </c><c>   2</c></rc>
    <rc><c>O </c><c>   2</c></rc>
    <rc><c>O </c><c>   2</c></rc>
    <rc><c>O </c><c>   2</c></rc>
    <rc><c>O </c><c>   2</c></rc>
    <rc><c>O </c><c>   2</c></rc>
    <rc><c>O </c><c>   2</c></rc>
    <rc><c>O </c><c>   2</c></rc>
    <rc><c>O </c><c>   2</c></rc>
    <rc><c>O </c><c>   2</c></rc>
    <rc><c>O </c><c>   2</c></rc>
    <rc><c>O </c><c>   2</c></rc>
    <rc><c>O </c><c>   2</c></rc>
    <rc><c>O </c><c>   2</c></rc>
    <rc><c>Zn</c><c>   3</c></rc>
    <rc><c>Zn</c><c>   3</c></rc>
    <rc><c>Zn</c><c>   3</c></rc>
    <rc><c>Zn</c><c>   3</c></rc>
    <rc><c>Tb</c><c>   4</c></rc>
    <rc><c>Tb</c><c>   4</c></rc>
    <rc><c>Tb</c><c>   4</c></rc>
    <rc><c>Tb</c><c>   4</c></rc>
   </set>
  </array>
  <array name="atomtypes" >
   <dimension dim="1">type</dimension>
   <field type="int">atomspertype</field>
   <field type="string">element</field>
   <field>mass</field>
   <field>valence</field>
   <field type="string">pseudopotential</field>
   <set>
    <rc><c>  20</c><c>B </c><c>     10.81100000</c><c>      3.00000000</c><c> PAW_PBE B 06Sep2000                    </c></rc>
    <rc><c>  40</c><c>O </c><c>     16.00000000</c><c>      6.00000000</c><c> PAW_PBE O 08Apr2002                    </c></rc>
    <rc><c>   4</c><c>Zn</c><c>     65.39000000</c><c>     12.00000000</c><c> PAW_PBE Zn 06Sep2000                   </c></rc>
    <rc><c>   4</c><c>Tb</c><c>    158.92500000</c><c>      9.00000000</c><c> PAW_PBE Tb_3 06Sep2000                 </c></rc>
   </set>
  </array>
 </atominfo>
 <structure name="initialpos" >
  <crystal>
   <varray name="basis" >
    <v>       7.60500000       0.00000000       0.00000000 </v>
    <v>       0.00000000       8.56543020      -0.53303806 </v>
    <v>       0.00000000       0.00000000       9.39300000 </v>
   </varray>
   <i name="volume">    611.86092768 </i>
   <varray name="rec_basis" >
    <v>       0.13149244       0.00000000       0.00000000 </v>
    <v>       0.00000000       0.11674837       0.00000000 </v>
    <v>       0.00000000       0.00662529       0.10646226 </v>
   </varray>
  </crystal>
  <varray name="positions" >
   <v>       0.42470000       0.08380000       0.74240000 </v>
   <v>       0.81220000       0.56460000       0.08800000 </v>
   <v>       0.31220000       0.93540000       0.41200000 </v>
   <v>       0.18780000       0.43540000       0.91200000 </v>
   <v>       0.68780000       0.06460000       0.58800000 </v>
   <v>       0.10170000       0.65850000       0.50500000 </v>
   <v>       0.60170000       0.84150000       0.99500000 </v>
   <v>       0.89830000       0.34150000       0.49500000 </v>
   <v>       0.39830000       0.15850000       0.00500000 </v>
   <v>       0.92470000       0.41620000       0.75760000 </v>
   <v>       0.57530000       0.91620000       0.25760000 </v>
   <v>       0.07530000       0.58380000       0.24240000 </v>
   <v>       0.67330000       0.51870000       0.60420000 </v>
   <v>       0.17330000       0.98130000       0.89580000 </v>
   <v>       0.32670000       0.48130000       0.39580000 </v>
   <v>       0.82670000       0.01870000       0.10420000 </v>
   <v>       0.46710000       0.27760000       0.55510000 </v>
   <v>       0.96710000       0.22240000       0.94490000 </v>
   <v>       0.53290000       0.72240000       0.44490000 </v>
   <v>       0.03290000       0.77760000       0.05510000 </v>
   <v>       0.79340000       0.53600000       0.72920000 </v>
   <v>       0.35020000       0.50610000       0.92940000 </v>
   <v>       0.85020000       0.99390000       0.57060000 </v>
   <v>       0.64980000       0.49390000       0.07060000 </v>
   <v>       0.14980000       0.00610000       0.42940000 </v>
   <v>       0.55290000       0.75750000       0.87510000 </v>
   <v>       0.05290000       0.74250000       0.62490000 </v>
   <v>       0.44710000       0.24250000       0.12490000 </v>
   <v>       0.29340000       0.96400000       0.77080000 </v>
   <v>       0.94710000       0.25750000       0.37510000 </v>
   <v>       0.70660000       0.03600000       0.22920000 </v>
   <v>       0.20660000       0.46400000       0.27080000 </v>
   <v>       0.46730000       0.18400000       0.87400000 </v>
   <v>       0.96730000       0.31600000       0.62600000 </v>
   <v>       0.53270000       0.81600000       0.12600000 </v>
   <v>       0.03270000       0.68400000       0.37400000 </v>
   <v>       0.59040000       0.01020000       0.69600000 </v>
   <v>       0.09040000       0.48980000       0.80400000 </v>
   <v>       0.40960000       0.98980000       0.30400000 </v>
   <v>       0.90960000       0.51020000       0.19600000 </v>
   <v>       0.34970000       0.18260000       0.63620000 </v>
   <v>       0.84970000       0.31740000       0.86380000 </v>
   <v>       0.65030000       0.81740000       0.36380000 </v>
   <v>       0.15030000       0.68260000       0.13620000 </v>
   <v>       0.52910000       0.41580000       0.64900000 </v>
   <v>       0.02910000       0.08420000       0.85100000 </v>
   <v>       0.47090000       0.58420000       0.35100000 </v>
   <v>       0.97090000       0.91580000       0.14900000 </v>
   <v>       0.60720000       0.67580000       0.58080000 </v>
   <v>       0.10720000       0.82420000       0.91920000 </v>
   <v>       0.39280000       0.32420000       0.41920000 </v>
   <v>       0.87300000       0.68320000       0.00940000 </v>
   <v>       0.77150000       0.45610000       0.47920000 </v>
   <v>       0.27150000       0.04390000       0.02080000 </v>
   <v>       0.22850000       0.54390000       0.52080000 </v>
   <v>       0.72850000       0.95610000       0.97920000 </v>
   <v>       0.62700000       0.18320000       0.50940000 </v>
   <v>       0.12700000       0.31680000       0.99060000 </v>
   <v>       0.37300000       0.81680000       0.49060000 </v>
   <v>       0.89280000       0.17580000       0.08080000 </v>
   <v>       0.59056000       0.39361000       0.87380000 </v>
   <v>       0.09056000       0.10639000       0.62620000 </v>
   <v>       0.40944000       0.60639000       0.12620000 </v>
   <v>       0.90944000       0.89361000       0.37380000 </v>
   <v>       0.81787000       0.81575000       0.76148000 </v>
   <v>       0.31787000       0.68425000       0.73852000 </v>
   <v>       0.18213000       0.18425000       0.23852000 </v>
   <v>       0.68213000       0.31575000       0.26148000 </v>
  </varray>
 </structure>
 <calculation>
  <scstep>
   <time name="dav">  108.95  108.95</time>
   <time name="total">  109.94  110.06</time>
   <energy>
    <i name="alphaZ">   1662.85495970 </i>
    <i name="ewald"> -21207.96401362 </i>
    <i name="hartreedc">  -7399.45191589 </i>
    <i name="XCdc">   1491.07379776 </i>
    <i name="pawpsdc">  17034.39782924 </i>
    <i name="pawaedc"> -17664.46507234 </i>
    <i name="eentropy">      0.00000000 </i>
    <i name="bandstr">   2314.45556373 </i>
    <i name="atom">  28276.34490735 </i>
    <i name="e_fr_energy">   4507.24605593 </i>
    <i name="e_wo_entrp">   4507.24605593 </i>
    <i name="e_0_energy">   4507.24605593 </i>
   </energy>
  </scstep>
  <scstep>
   <time name="dav">  112.42  112.40</time>
   <time name="total">  112.50  112.49</time>
   <energy>
    <i name="e_fr_energy">    143.82470576 </i>
    <i name="e_wo_entrp">    143.82470576 </i>
    <i name="e_0_energy">    143.82470576 </i>
   </energy>
  </scstep>
  <scstep>
   <time name="dav">  118.11  118.11</time>
   <time name="total">  118.18  118.30</time>
   <energy>
    <i name="e_fr_energy">   -512.07314991 </i>
    <i name="e_wo_entrp">   -512.07314991 </i>
    <i name="e_0_energy">   -512.07314991 </i>
   </energy>
  </scstep>
  <scstep>
   <time name="dav">  126.55  126.56</time>
   <time name="total">  126.62  126.64</time>
   <energy>
    <i name="e_fr_energy">   -547.71313946 </i>
    <i name="e_wo_entrp">   -547.71313946 </i>
    <i name="e_0_energy">   -547.71313946 </i>
   </energy>
  </scstep>
  <scstep>
   <time name="dav">  127.97  127.98</time>
   <time name="total">  132.51  132.52</time>
   <energy>
    <i name="e_fr_energy">   -548.54670136 </i>
    <i name="e_wo_entrp">   -548.54670136 </i>
    <i name="e_0_energy">   -548.54670136 </i>
   </energy>
  </scstep>
  <scstep>
   <time name="diag">   16.85   16.85</time>
   <time name="diis">   67.08   67.08</time>
   <time name="orth">    2.77    2.77</time>
   <time name="total">   91.91   91.91</time>
   <energy>
    <i name="e_fr_energy">   -488.46375089 </i>
    <i name="e_wo_entrp">   -488.46375089 </i>
    <i name="e_0_energy">   -488.46375089 </i>
   </energy>
  </scstep>
  <scstep>
   <time name="diag">   16.86   16.86</time>
   <time name="diis">   67.77   67.78</time>
   <time name="orth">    2.77    2.77</time>
   <time name="total">   92.62   92.62</time>
   <energy>
    <i name="e_fr_energy">   -520.70291381 </i>
    <i name="e_wo_entrp">   -520.70291381 </i>
    <i name="e_0_energy">   -520.70291381 </i>
   </energy>
  </scstep>
  <scstep>
   <time name="diag">   16.85   16.85</time>
   <time name="diis">   67.22   67.22</time>
   <time name="orth">    2.77    2.77</time>
   <time name="total">   92.05   92.06</time>
   <energy>
    <i name="e_fr_energy">   -525.41991855 </i>
    <i name="e_wo_entrp">   -525.41991855 </i>
    <i name="e_0_energy">   -525.41991855 </i>
   </energy>
  </scstep>
  <scstep>
   <time name="diag">   16.84   16.83</time>
   <time name="diis">   67.51   67.52</time>
   <time name="orth">    2.77    2.77</time>
   <time name="total">   92.33   95.36</time>
   <energy>
    <i name="e_fr_energy">   -526.34203212 </i>
    <i name="e_wo_entrp">   -526.34203212 </i>
    <i name="e_0_energy">   -526.34203212 </i>
   </energy>
  </scstep>
  <scstep>
   <time name="diag">   16.83   16.83</time>
   <time name="diis">   67.17   67.17</time>
   <time name="orth">    2.76    2.76</time>
   <time name="total">   91.98   91.98</time>
   <energy>
    <i name="e_fr_energy">   -526.35497428 </i>
    <i name="e_wo_entrp">   -526.35497428 </i>
    <i name="e_0_energy">   -526.35497428 </i>
   </energy>
  </scstep>
  <scstep>
   <time name="diag">   16.91   16.91</time>
   <time name="diis">   67.78   67.79</time>
   <time name="orth">    2.77    2.77</time>
   <time name="total">   92.66   92.67</time>
   <energy>
    <i name="e_fr_energy">   -526.35602660 </i>
    <i name="e_wo_entrp">   -526.35602660 </i>
    <i name="e_0_energy">   -526.35602660 </i>
   </energy>
  </scstep>
  <scstep>
   <time name="diag">   17.03   17.03</time>
   <time name="diis">   71.25   71.25</time>
   <time name="orth">    2.76    2.77</time>
   <time name="total">   96.24   96.25</time>
   <energy>
    <i name="e_fr_energy">   -526.36065381 </i>
    <i name="e_wo_entrp">   -526.36065381 </i>
    <i name="e_0_energy">   -526.36065381 </i>
   </energy>
  </scstep>
  <scstep>
   <time name="diag">   16.85   16.85</time>
   <time name="diis">   67.81   67.82</time>
   <time name="orth">    2.77    2.77</time>
   <time name="total">   92.63   94.19</time>
   <energy>
    <i name="e_fr_energy">   -526.35996604 </i>
    <i name="e_wo_entrp">   -526.35996604 </i>
    <i name="e_0_energy">   -526.35996604 </i>
   </energy>
  </scstep>
  <scstep>
   <time name="diag">   16.85   16.85</time>
   <time name="diis">   71.27   71.27</time>
   <time name="orth">    2.77    2.77</time>
   <time name="total">   96.08   96.09</time>
   <energy>
    <i name="e_fr_energy">   -526.36025113 </i>
    <i name="e_wo_entrp">   -526.36025113 </i>
    <i name="e_0_energy">   -526.36025113 </i>
   </energy>
  </scstep>
  <scstep>
   <time name="diag">   16.86   16.86</time>
   <time name="diis">   67.23   67.24</time>
   <time name="orth">    2.76    2.77</time>
   <time name="total">   92.06   92.06</time>
   <energy>
    <i name="e_fr_energy">   -526.36022803 </i>
    <i name="e_wo_entrp">   -526.36022803 </i>
    <i name="e_0_energy">   -526.36022803 </i>
   </energy>
  </scstep>
  <scstep>
   <time name="diag">   16.94   16.94</time>
   <time name="diis">   68.21   68.22</time>
   <time name="orth">    2.76    2.76</time>
   <time name="total">   93.12   93.13</time>
   <energy>
    <i name="e_fr_energy">   -526.36023185 </i>
    <i name="e_wo_entrp">   -526.36023185 </i>
    <i name="e_0_energy">   -526.36023185 </i>
   </energy>
  </scstep>
  <scstep>
   <time name="diag">   16.92   16.92</time>
   <time name="diis">   47.50   47.50</time>
   <time name="orth">    2.76    2.77</time>
   <time name="total">   72.38   73.31</time>
   <energy>
    <i name="e_fr_energy">   -526.36023409 </i>
    <i name="e_wo_entrp">   -526.36023409 </i>
    <i name="e_0_energy">   -526.36023409 </i>
   </energy>
  </scstep>
  <scstep>
   <time name="diag">   16.89   16.89</time>
   <time name="diis">   45.53   45.53</time>
   <time name="orth">    2.77    2.77</time>
   <time name="total">   65.93   69.61</time>
   <energy>
    <i name="alphaZ">   1662.85495970 </i>
    <i name="ewald"> -21207.96401362 </i>
    <i name="hartreedc">  -8054.29405098 </i>
    <i name="XCdc">   1524.21555118 </i>
    <i name="pawpsdc">  20538.07634807 </i>
    <i name="pawaedc"> -21182.71319643 </i>
    <i name="eentropy">      0.00000000 </i>
    <i name="bandstr">  -2082.88074036 </i>
    <i name="atom">  28276.34490735 </i>
    <i name="e_fr_energy">   -526.36023509 </i>
    <i name="e_wo_entrp">   -526.36023509 </i>
    <i name="e_0_energy">   -526.36023509 </i>
   </energy>
  </scstep>
  <v type="logical" name="LVDW"> F  </v>
  <structure>
   <crystal>
    <varray name="basis" >
     <v>       7.60500000       0.00000000       0.00000000 </v>
     <v>       0.00000000       8.56543020      -0.53303806 </v>
     <v>       0.00000000       0.00000000       9.39300000 </v>
    </varray>
    <i name="volume">    611.86092768 </i>
    <varray name="rec_basis" >
     <v>       0.13149244       0.00000000       0.00000000 </v>
     <v>       0.00000000       0.11674837       0.00000000 </v>
     <v>       0.00000000       0.00662529       0.10646226 </v>
    </varray>
   </crystal>
   <varray name="positions" >
    <v>       0.42470000       0.08380000       0.74240000 </v>
    <v>       0.81220000       0.56460000       0.08800000 </v>
    <v>       0.31220000       0.93540000       0.41200000 </v>
    <v>       0.18780000       0.43540000       0.91200000 </v>
    <v>       0.68780000       0.06460000       0.58800000 </v>
    <v>       0.10170000       0.65850000       0.50500000 </v>
    <v>       0.60170000       0.84150000       0.99500000 </v>
    <v>       0.89830000       0.34150000       0.49500000 </v>
    <v>       0.39830000       0.15850000       0.00500000 </v>
    <v>       0.92470000       0.41620000       0.75760000 </v>
    <v>       0.57530000       0.91620000       0.25760000 </v>
    <v>       0.07530000       0.58380000       0.24240000 </v>
    <v>       0.67330000       0.51870000       0.60420000 </v>
    <v>       0.17330000       0.98130000       0.89580000 </v>
    <v>       0.32670000       0.48130000       0.39580000 </v>
    <v>       0.82670000       0.01870000       0.10420000 </v>
    <v>       0.46710000       0.27760000       0.55510000 </v>
    <v>       0.96710000       0.22240000       0.94490000 </v>
    <v>       0.53290000       0.72240000       0.44490000 </v>
    <v>       0.03290000       0.77760000       0.05510000 </v>
    <v>       0.79340000       0.53600000       0.72920000 </v>
    <v>       0.35020000       0.50610000       0.92940000 </v>
    <v>       0.85020000       0.99390000       0.57060000 </v>
    <v>       0.64980000       0.49390000       0.07060000 </v>
    <v>       0.14980000       0.00610000       0.42940000 </v>
    <v>       0.55290000       0.75750000       0.87510000 </v>
    <v>       0.05290000       0.74250000       0.62490000 </v>
    <v>       0.44710000       0.24250000       0.12490000 </v>
    <v>       0.29340000       0.96400000       0.77080000 </v>
    <v>       0.94710000       0.25750000       0.37510000 </v>
    <v>       0.70660000       0.03600000       0.22920000 </v>
    <v>       0.20660000       0.46400000       0.27080000 </v>
    <v>       0.46730000       0.18400000       0.87400000 </v>
    <v>       0.96730000       0.31600000       0.62600000 </v>
    <v>       0.53270000       0.81600000       0.12600000 </v>
    <v>       0.03270000       0.68400000       0.37400000 </v>
    <v>       0.59040000       0.01020000       0.69600000 </v>
    <v>       0.09040000       0.48980000       0.80400000 </v>
    <v>       0.40960000       0.98980000       0.30400000 </v>
    <v>       0.90960000       0.51020000       0.19600000 </v>
    <v>       0.34970000       0.18260000       0.63620000 </v>
    <v>       0.84970000       0.31740000       0.86380000 </v>
    <v>       0.65030000       0.81740000       0.36380000 </v>
    <v>       0.15030000       0.68260000       0.13620000 </v>
    <v>       0.52910000       0.41580000       0.64900000 </v>
    <v>       0.02910000       0.08420000       0.85100000 </v>
    <v>       0.47090000       0.58420000       0.35100000 </v>
    <v>       0.97090000       0.91580000       0.14900000 </v>
    <v>       0.60720000       0.67580000       0.58080000 </v>
    <v>       0.10720000       0.82420000       0.91920000 </v>
    <v>       0.39280000       0.32420000       0.41920000 </v>
    <v>       0.87300000       0.68320000       0.00940000 </v>
    <v>       0.77150000       0.45610000       0.47920000 </v>
    <v>       0.27150000       0.04390000       0.02080000 </v>
    <v>       0.22850000       0.54390000       0.52080000 </v>
    <v>       0.72850000       0.95610000       0.97920000 </v>
    <v>       0.62700000       0.18320000       0.50940000 </v>
    <v>       0.12700000       0.31680000       0.99060000 </v>
    <v>       0.37300000       0.81680000       0.49060000 </v>
    <v>       0.89280000       0.17580000       0.08080000 </v>
    <v>       0.59056000       0.39361000       0.87380000 </v>
    <v>       0.09056000       0.10639000       0.62620000 </v>
    <v>       0.40944000       0.60639000       0.12620000 </v>
    <v>       0.90944000       0.89361000       0.37380000 </v>
    <v>       0.81787000       0.81575000       0.76148000 </v>
    <v>       0.31787000       0.68425000       0.73852000 </v>
    <v>       0.18213000       0.18425000       0.23852000 </v>
    <v>       0.68213000       0.31575000       0.26148000 </v>
   </varray>
  </structure>
  <varray name="forces" >
   <v>      -0.11799553      -0.12304466       0.16236042 </v>
   <v>      -0.27045081       0.41903485      -0.48085684 </v>
   <v>      -0.27045081      -0.41903485       0.48085684 </v>
   <v>       0.27045081      -0.41903485       0.48085684 </v>
   <v>       0.27045081       0.41903485      -0.48085684 </v>
   <v>      -0.08746691       0.11363602       0.43379071 </v>
   <v>      -0.08746691      -0.11363602      -0.43379071 </v>
   <v>       0.08746691      -0.11363602      -0.43379071 </v>
   <v>       0.08746691       0.11363602       0.43379071 </v>
   <v>      -0.11799553       0.12304466      -0.16236042 </v>
   <v>       0.11799553       0.12304466      -0.16236042 </v>
   <v>       0.11799553      -0.12304466       0.16236042 </v>
   <v>       0.36682092      -0.14423396       0.18890214 </v>
   <v>       0.36682092       0.14423396      -0.18890214 </v>
   <v>      -0.36682092       0.14423396      -0.18890214 </v>
   <v>      -0.36682092      -0.14423396       0.18890214 </v>
   <v>       0.31532222       0.05066744       0.17193664 </v>
   <v>       0.31532222      -0.05066744      -0.17193664 </v>
   <v>      -0.31532222      -0.05066744      -0.17193664 </v>
   <v>      -0.31532222       0.05066744       0.17193664 </v>
   <v>       0.00351510       0.25977808      -0.06033561 </v>
   <v>      -0.32487798       0.06053491      -0.21910012 </v>
   <v>      -0.32487798      -0.06053491       0.21910012 </v>
   <v>       0.32487798      -0.06053491       0.21910012 </v>
   <v>       0.32487798       0.06053491      -0.21910012 </v>
   <v>       0.04179085       0.10433131      -0.07979170 </v>
   <v>       0.04179085      -0.10433131       0.07979170 </v>
   <v>      -0.04179085      -0.10433131       0.07979170 </v>
   <v>       0.00351510      -0.25977808       0.06033561 </v>
   <v>      -0.04179085       0.10433131      -0.07979170 </v>
   <v>      -0.00351510       0.25977808      -0.06033561 </v>
   <v>      -0.00351510      -0.25977808       0.06033561 </v>
   <v>      -0.03697998      -0.12720620      -0.15433145 </v>
   <v>      -0.03697998       0.12720620       0.15433145 </v>
   <v>       0.03697998       0.12720620       0.15433145 </v>
   <v>       0.03697998      -0.12720620      -0.15433145 </v>
   <v>      -0.08017750      -0.23301013       0.28871290 </v>
   <v>      -0.08017750       0.23301013      -0.28871290 </v>
   <v>       0.08017750       0.23301013      -0.28871290 </v>
   <v>       0.08017750      -0.23301013       0.28871290 </v>
   <v>       0.11144044       0.04102687      -0.03556528 </v>
   <v>       0.11144044      -0.04102687       0.03556528 </v>
   <v>      -0.11144044      -0.04102687       0.03556528 </v>
   <v>      -0.11144044       0.04102687      -0.03556528 </v>
   <v>      -0.28951860      -0.03129314      -0.07913471 </v>
   <v>      -0.28951860       0.03129314       0.07913471 </v>
   <v>       0.28951860       0.03129314       0.07913471 </v>
   <v>       0.28951860      -0.03129314      -0.07913471 </v>
   <v>       0.05931350       0.09216882       0.27091717 </v>
   <v>       0.05931350      -0.09216882      -0.27091717 </v>
   <v>      -0.05931350      -0.09216882      -0.27091717 </v>
   <v>       0.01231992      -0.19217415       0.06514126 </v>
   <v>      -0.15342191       0.00019151      -0.03675545 </v>
   <v>      -0.15342191      -0.00019151       0.03675545 </v>
   <v>       0.15342191      -0.00019151       0.03675545 </v>
   <v>       0.15342191       0.00019151      -0.03675545 </v>
   <v>      -0.01231992      -0.19217415       0.06514126 </v>
   <v>      -0.01231992       0.19217415      -0.06514126 </v>
   <v>       0.01231992       0.19217415      -0.06514126 </v>
   <v>      -0.05931350       0.09216882       0.27091717 </v>
   <v>      -0.04453578       0.07361079      -0.08024911 </v>
   <v>      -0.04453578      -0.07361079       0.08024911 </v>
   <v>       0.04453578      -0.07361079       0.08024911 </v>
   <v>       0.04453578       0.07361079      -0.08024911 </v>
   <v>      -0.05834347      -0.07285532       0.01863481 </v>
   <v>      -0.05834347       0.07285532      -0.01863481 </v>
   <v>       0.05834347       0.07285532      -0.01863481 </v>
   <v>       0.05834347      -0.07285532       0.01863481 </v>
  </varray>
  <varray name="stress" >
   <v>      38.63015526       0.00000000       0.00000000 </v>
   <v>       0.00000000      37.81545935      -1.59986799 </v>
   <v>       0.00000000      -1.59987642      40.74365474 </v>
  </varray>
  <energy>
   <i name="e_fr_energy">   -526.36023509 </i>
   <i name="e_wo_entrp">   -526.36023509 </i>
   <i name="e_0_energy">      0.00000000 </i>
  </energy>
  <time name="totalsc"> 1918.84 1928.37</time>
 </calculation>
 <calculation>
  <scstep>
   <time name="dav">  134.18  134.18</time>
   <time name="total">  139.41  139.61</time>
   <energy>
    <i name="alphaZ">   1611.15698531 </i>
    <i name="ewald"> -21014.15772012 </i>
    <i name="hartreedc">  -7943.56653655 </i>
    <i name="XCdc">   1507.15085913 </i>
    <i name="pawpsdc">  20538.09215785 </i>
    <i name="pawaedc"> -21182.73203543 </i>
    <i name="eentropy">      0.00000000 </i>
    <i name="bandstr">  -2320.61226151 </i>
    <i name="atom">  28276.34490735 </i>
    <i name="e_fr_energy">   -528.32364396 </i>
    <i name="e_wo_entrp">   -528.32364396 </i>
    <i name="e_0_energy">   -528.32364396 </i>
   </energy>
  </scstep>
  <scstep>
   <time name="diag">   16.83   16.84</time>
   <time name="diis">   66.67   66.67</time>
   <time name="orth">    2.76    2.76</time>
   <time name="total">   91.45   91.47</time>
   <energy>
    <i name="e_fr_energy">   -526.48808086 </i>
    <i name="e_wo_entrp">   -526.48808086 </i>
    <i name="e_0_energy">   -526.48808086 </i>
   </energy>
  </scstep>
  <scstep>
   <time name="diag">   16.87   16.86</time>
   <time name="diis">   70.08   70.08</time>
   <time name="orth">    2.77    2.77</time>
   <time name="total">   94.89   94.90</time>
   <energy>
    <i name="e_fr_energy">   -526.34104006 </i>
    <i name="e_wo_entrp">   -526.34104006 </i>
    <i name="e_0_energy">   -526.34104006 </i>
   </energy>
  </scstep>
  <scstep>
   <time name="diag">   16.87   16.86</time>
   <time name="diis">   68.53   68.54</time>
   <time name="orth">    2.77    2.77</time>
   <time name="total">   93.34   93.49</time>
   <energy>
    <i name="e_fr_energy">   -526.29384076 </i>
    <i name="e_wo_entrp">   -526.29384076 </i>
    <i name="e_0_energy">   -526.29384076 </i>
   </energy>
  </scstep>
  <scstep>
   <time name="diag">   16.87   16.87</time>
   <time name="diis">   69.62   69.62</time>
   <time name="orth">    2.76    2.76</time>
   <time name="total">   94.44   94.44</time>
   <energy>
    <i name="e_fr_energy">   -526.28955030 </i>
    <i name="e_wo_entrp">   -526.28955030 </i>
    <i name="e_0_energy">   -526.28955030 </i>
   </energy>
  </scstep>
  <scstep>
   <time name="diag">   16.87   16.88</time>
   <time name="diis">   68.08   68.08</time>
   <time name="orth">    2.77    2.77</time>
   <time name="total">   92.89   92.90</time>
   <energy>
    <i name="e_fr_energy">   -526.28923125 </i>
    <i name="e_wo_entrp">   -526.28923125 </i>
    <i name="e_0_energy">   -526.28923125 </i>
   </energy>
  </scstep>
  <scstep>
   <time name="diag">   16.86   16.86</time>
   <time name="diis">   67.27   67.27</time>
   <time name="orth">    2.77    2.77</time>
   <time name="total">   92.07   92.08</time>
   <energy>
    <i name="e_fr_energy">   -526.28914684 </i>
    <i name="e_wo_entrp">   -526.28914684 </i>
    <i name="e_0_energy">   -526.28914684 </i>
   </energy>
  </scstep>
  <scstep>
   <time name="diag">   16.87   16.87</time>
   <time name="diis">   66.58   66.57</time>
   <time name="orth">    2.76    2.76</time>
   <time name="total">   91.39   91.38</time>
   <energy>
    <i name="e_fr_energy">   -526.28914217 </i>
    <i name="e_wo_entrp">   -526.28914217 </i>
    <i name="e_0_energy">   -526.28914217 </i>
   </energy>
  </scstep>
  <scstep>
   <time name="diag">   16.87   16.87</time>
   <time name="diis">   47.21   47.21</time>
   <time name="orth">    2.76    2.77</time>
   <time name="total">   67.58   67.58</time>
   <energy>
    <i name="alphaZ">   1611.15698531 </i>
    <i name="ewald"> -21014.15772012 </i>
    <i name="hartreedc">  -8121.06482083 </i>
    <i name="XCdc">   1518.19101884 </i>
    <i name="pawpsdc">  20325.91991213 </i>
    <i name="pawaedc"> -20968.30389340 </i>
    <i name="eentropy">      0.00000000 </i>
    <i name="bandstr">  -2154.37553075 </i>
    <i name="atom">  28276.34490735 </i>
    <i name="e_fr_energy">   -526.28914147 </i>
    <i name="e_wo_entrp">   -526.28914147 </i>
    <i name="e_0_energy">   -526.28914147 </i>
   </energy>
  </scstep>
  <structure>
   <crystal>
    <varray name="basis" >
     <v>       7.68459579       0.00000000       0.00000000 </v>
     <v>       0.00000000       8.65341849      -0.54263496 </v>
     <v>       0.00000000      -0.00407151       9.49668805 </v>
    </varray>
    <i name="volume">    631.49400556 </i>
    <varray name="rec_basis" >
     <v>       0.13013046       0.00000000       0.00000000 </v>
     <v>       0.00000000       0.11556437       0.00004955 </v>
     <v>       0.00000000       0.00660328       0.10530270 </v>
    </varray>
   </crystal>
   <varray name="positions" >
    <v>       0.42395149       0.08310698       0.74319456 </v>
    <v>       0.81048438       0.56696011       0.08566424 </v>
    <v>       0.31048438       0.93303989       0.41433576 </v>
    <v>       0.18951562       0.43303989       0.91433576 </v>
    <v>       0.68951562       0.06696011       0.58566424 </v>
    <v>       0.10114515       0.65914003       0.50726428 </v>
    <v>       0.60114515       0.84085997       0.99273572 </v>
    <v>       0.89885485       0.34085997       0.49273572 </v>
    <v>       0.39885485       0.15914003       0.00726428 </v>
    <v>       0.92395149       0.41689302       0.75680544 </v>
    <v>       0.57604851       0.91689302       0.25680544 </v>
    <v>       0.07604851       0.58310698       0.24319456 </v>
    <v>       0.67562694       0.51788764       0.60512411 </v>
    <v>       0.17562694       0.98211236       0.89487589 </v>
    <v>       0.32437306       0.48211236       0.39487589 </v>
    <v>       0.82437306       0.01788764       0.10512411 </v>
    <v>       0.46910026       0.27788537       0.55599926 </v>
    <v>       0.96910026       0.22211463       0.94400074 </v>
    <v>       0.53089974       0.72211463       0.44400074 </v>
    <v>       0.03089974       0.77788537       0.05599926 </v>
    <v>       0.79342230       0.53746314       0.72897315 </v>
    <v>       0.34813912       0.50644095       0.92829405 </v>
    <v>       0.84813912       0.99355905       0.57170595 </v>
    <v>       0.65186088       0.49355905       0.07170595 </v>
    <v>       0.15186088       0.00644095       0.42829405 </v>
    <v>       0.55316510       0.75808762       0.87472353 </v>
    <v>       0.05316510       0.74191238       0.62527647 </v>
    <v>       0.44683490       0.24191238       0.12527647 </v>
    <v>       0.29342230       0.96253686       0.77102685 </v>
    <v>       0.94683490       0.25808762       0.37472353 </v>
    <v>       0.70657770       0.03746314       0.22897315 </v>
    <v>       0.20657770       0.46253686       0.27102685 </v>
    <v>       0.46706542       0.18328354       0.87316669 </v>
    <v>       0.96706542       0.31671646       0.62683331 </v>
    <v>       0.53293458       0.81671646       0.12683331 </v>
    <v>       0.03293458       0.68328354       0.37316669 </v>
    <v>       0.58989139       0.00888763       0.69740836 </v>
    <v>       0.08989139       0.49111237       0.80259164 </v>
    <v>       0.41010861       0.99111237       0.30259164 </v>
    <v>       0.91010861       0.50888763       0.19740836 </v>
    <v>       0.35040693       0.18283107       0.63603045 </v>
    <v>       0.85040693       0.31716893       0.86396955 </v>
    <v>       0.64959307       0.81716893       0.36396955 </v>
    <v>       0.14959307       0.68283107       0.13603045 </v>
    <v>       0.52726343       0.41562375       0.64858356 </v>
    <v>       0.02726343       0.08437625       0.85141644 </v>
    <v>       0.47273657       0.58437625       0.35141644 </v>
    <v>       0.97273657       0.91562375       0.14858356 </v>
    <v>       0.60757626       0.67631912       0.58222090 </v>
    <v>       0.10757626       0.82368088       0.91777910 </v>
    <v>       0.39242374       0.32368088       0.41777910 </v>
    <v>       0.87307815       0.68211763       0.00967314 </v>
    <v>       0.77052676       0.45610108       0.47901128 </v>
    <v>       0.27052676       0.04389892       0.02098872 </v>
    <v>       0.22947324       0.54389892       0.52098872 </v>
    <v>       0.72947324       0.95610108       0.97901128 </v>
    <v>       0.62692185       0.18211763       0.50967314 </v>
    <v>       0.12692185       0.31788237       0.99032686 </v>
    <v>       0.37307815       0.81788237       0.49032686 </v>
    <v>       0.89242374       0.17631912       0.08222090 </v>
    <v>       0.59027749       0.39402459       0.87341137 </v>
    <v>       0.09027749       0.10597541       0.62658863 </v>
    <v>       0.40972251       0.60597541       0.12658863 </v>
    <v>       0.90972251       0.89402459       0.37341137 </v>
    <v>       0.81749990       0.81533966       0.76155242 </v>
    <v>       0.31749990       0.68466034       0.73844758 </v>
    <v>       0.18250010       0.18466034       0.23844758 </v>
    <v>       0.68250010       0.31533966       0.26155242 </v>
   </varray>
  </structure>
  <varray name="forces" >
   <v>       0.32645802      -0.07037065      -0.20646752 </v>
   <v>       0.71203178      -0.70864316       1.30975961 </v>
   <v>       0.71203178       0.70864316      -1.30975961 </v>
   <v>      -0.71203178       0.70864316      -1.30975961 </v>
   <v>      -0.71203178      -0.70864316       1.30975961 </v>
   <v>       0.01933501      -0.33503098      -0.72296315 </v>
   <v>       0.01933501       0.33503098       0.72296315 </v>
   <v>      -0.01933501       0.33503098       0.72296315 </v>
   <v>      -0.01933501      -0.33503098      -0.72296315 </v>
   <v>       0.32645802       0.07037065       0.20646752 </v>
   <v>      -0.32645802       0.07037065       0.20646752 </v>
   <v>      -0.32645802      -0.07037065      -0.20646752 </v>
   <v>      -0.24292848       0.19852863      -0.11801258 </v>
   <v>      -0.24292848      -0.19852863       0.11801258 </v>
   <v>       0.24292848      -0.19852863       0.11801258 </v>
   <v>       0.24292848       0.19852863      -0.11801258 </v>
   <v>      -0.27146281      -0.00774750      -0.12562825 </v>
   <v>      -0.27146281       0.00774750       0.12562825 </v>
   <v>       0.27146281       0.00774750       0.12562825 </v>
   <v>       0.27146281      -0.00774750      -0.12562825 </v>
   <v>      -0.01034335      -0.24978451      -0.11983396 </v>
   <v>       0.07787986       0.01891393       0.08717937 </v>
   <v>       0.07787986      -0.01891393      -0.08717937 </v>
   <v>      -0.07787986      -0.01891393      -0.08717937 </v>
   <v>      -0.07787986       0.01891393       0.08717937 </v>
   <v>       0.01709416       0.03625048      -0.05091234 </v>
   <v>       0.01709416      -0.03625048       0.05091234 </v>
   <v>      -0.01709416      -0.03625048       0.05091234 </v>
   <v>      -0.01034335       0.24978451       0.11983396 </v>
   <v>      -0.01709416       0.03625048      -0.05091234 </v>
   <v>       0.01034335      -0.24978451      -0.11983396 </v>
   <v>       0.01034335       0.24978451       0.11983396 </v>
   <v>      -0.45824143      -0.10809275       0.89071717 </v>
   <v>      -0.45824143       0.10809275      -0.89071717 </v>
   <v>       0.45824143       0.10809275      -0.89071717 </v>
   <v>       0.45824143      -0.10809275       0.89071717 </v>
   <v>       0.42754315       0.55450662      -0.93054047 </v>
   <v>       0.42754315      -0.55450662       0.93054047 </v>
   <v>      -0.42754315      -0.55450662       0.93054047 </v>
   <v>      -0.42754315       0.55450662      -0.93054047 </v>
   <v>       0.28128110      -0.21895199       0.15580504 </v>
   <v>       0.28128110       0.21895199      -0.15580504 </v>
   <v>      -0.28128110       0.21895199      -0.15580504 </v>
   <v>      -0.28128110      -0.21895199       0.15580504 </v>
   <v>       0.38075070       0.08321485      -0.18396355 </v>
   <v>       0.38075070      -0.08321485       0.18396355 </v>
   <v>      -0.38075070      -0.08321485       0.18396355 </v>
   <v>      -0.38075070       0.08321485      -0.18396355 </v>
   <v>      -0.12060742      -0.23425731      -0.18669723 </v>
   <v>      -0.12060742       0.23425731       0.18669723 </v>
   <v>       0.12060742       0.23425731       0.18669723 </v>
   <v>       0.17250169       0.36049701      -0.12966338 </v>
   <v>       0.21734894      -0.51212989       0.27703432 </v>
   <v>       0.21734894       0.51212989      -0.27703432 </v>
   <v>      -0.21734894       0.51212989      -0.27703432 </v>
   <v>      -0.21734894      -0.51212989       0.27703432 </v>
   <v>      -0.17250169       0.36049701      -0.12966338 </v>
   <v>      -0.17250169      -0.36049701       0.12966338 </v>
   <v>       0.17250169      -0.36049701       0.12966338 </v>
   <v>       0.12060742      -0.23425731      -0.18669723 </v>
   <v>      -0.02998228      -0.10651957      -0.00297465 </v>
   <v>      -0.02998228       0.10651957       0.00297465 </v>
   <v>       0.02998228       0.10651957       0.00297465 </v>
   <v>       0.02998228      -0.10651957      -0.00297465 </v>
   <v>      -0.15536882       0.08433653      -0.08893069 </v>
   <v>      -0.15536882      -0.08433653       0.08893069 </v>
   <v>       0.15536882      -0.08433653       0.08893069 </v>
   <v>       0.15536882       0.08433653      -0.08893069 </v>
  </varray>
  <varray name="stress" >
   <v>     -29.36095309       0.00000000       0.00000000 </v>
   <v>       0.00000000     -22.57895049       9.59223786 </v>
   <v>       0.00000000       9.59222781     -38.64772963 </v>
  </varray>
  <energy>
   <i name="e_fr_energy">   -526.28914147 </i>
   <i name="e_wo_entrp">   -526.28914147 </i>
   <i name="e_0_energy">      0.00000000 </i>
  </energy>
  <time name="totalsc">  997.85  999.32</time>
 </calculation>
 <calculation>
  <scstep>
   <time name="dav">  133.81  133.82</time>
   <time name="total">  138.97  138.98</time>
   <energy>
    <i name="alphaZ">   1639.27470118 </i>
    <i name="ewald"> -21120.88524971 </i>
    <i name="hartreedc">  -8181.98857285 </i>
    <i name="XCdc">   1527.57198117 </i>
    <i name="pawpsdc">  20326.03938825 </i>
    <i name="pawaedc"> -20968.43309841 </i>
    <i name="eentropy">      0.00000000 </i>
    <i name="bandstr">  -2025.09299249 </i>
    <i name="atom">  28276.34490735 </i>
    <i name="e_fr_energy">   -527.16893552 </i>
    <i name="e_wo_entrp">   -527.16893552 </i>
    <i name="e_0_energy">   -527.16893552 </i>
   </energy>
  </scstep>
  <scstep>
   <time name="diag">   16.86   16.86</time>
   <time name="diis">   66.90   66.91</time>
   <time name="orth">    2.77    2.77</time>
   <time name="total">   91.72   91.74</time>
   <energy>
    <i name="e_fr_energy">   -526.60175606 </i>
    <i name="e_wo_entrp">   -526.60175606 </i>
    <i name="e_0_energy">   -526.60175606 </i>
   </energy>
  </scstep>
  <scstep>
   <time name="diag">   16.85   16.85</time>
   <time name="diis">   70.85   70.85</time>
   <time name="orth">    2.78    2.78</time>
   <time name="total">   95.67   95.67</time>
   <energy>
    <i name="e_fr_energy">   -526.55747616 </i>
    <i name="e_wo_entrp">   -526.55747616 </i>
    <i name="e_0_energy">   -526.55747616 </i>
   </energy>
  </scstep>
  <scstep>
   <time name="diag">   16.86   16.86</time>
   <time name="diis">   68.26   68.26</time>
   <time name="orth">    2.77    2.77</time>
   <time name="total">   93.08   93.09</time>
   <energy>
    <i name="e_fr_energy">   -526.54308076 </i>
    <i name="e_wo_entrp">   -526.54308076 </i>
    <i name="e_0_energy">   -526.54308076 </i>
   </energy>
  </scstep>
  <scstep>
   <time name="diag">   16.85   16.84</time>
   <time name="diis">   70.75   70.75</time>
   <time name="orth">    2.78    2.78</time>
   <time name="total">   95.57   95.58</time>
   <energy>
    <i name="e_fr_energy">   -526.54180820 </i>
    <i name="e_wo_entrp">   -526.54180820 </i>
    <i name="e_0_energy">   -526.54180820 </i>
   </energy>
  </scstep>
  <scstep>
   <time name="diag">   16.86   16.86</time>
   <time name="diis">   68.83   68.84</time>
   <time name="orth">    2.76    2.77</time>
   <time name="total">   93.65   93.66</time>
   <energy>
    <i name="e_fr_energy">   -526.54172080 </i>
    <i name="e_wo_entrp">   -526.54172080 </i>
    <i name="e_0_energy">   -526.54172080 </i>
   </energy>
  </scstep>
  <scstep>
   <time name="diag">   16.86   16.86</time>
   <time name="diis">   67.59   67.59</time>
   <time name="orth">    2.76    2.76</time>
   <time name="total">   92.41   92.41</time>
   <energy>
    <i name="e_fr_energy">   -526.54171289 </i>
    <i name="e_wo_entrp">   -526.54171289 </i>
    <i name="e_0_energy">   -526.54171289 </i>
   </energy>
  </scstep>
  <scstep>
   <time name="diag">   16.85   16.84</time>
   <time name="diis">   51.00   51.00</time>
   <time name="orth">    2.77    2.77</time>
   <time name="total">   71.35   71.36</time>
   <energy>
    <i name="alphaZ">   1639.27470118 </i>
    <i name="ewald"> -21120.88524971 </i>
    <i name="hartreedc">  -8083.87021230 </i>
    <i name="XCdc">   1521.46006854 </i>
    <i name="pawpsdc">  20439.50283850 </i>
    <i name="pawaedc"> -21083.11266337 </i>
    <i name="eentropy">      0.00000000 </i>
    <i name="bandstr">  -2115.25610398 </i>
    <i name="atom">  28276.34490735 </i>
    <i name="e_fr_energy">   -526.54171379 </i>
    <i name="e_wo_entrp">   -526.54171379 </i>
    <i name="e_0_energy">   -526.54171379 </i>
   </energy>
  </scstep>
  <structure>
   <crystal>
    <varray name="basis" >
     <v>       7.64088938       0.00000000       0.00000000 </v>
     <v>       0.00000000       8.60510372      -0.53736526 </v>
     <v>       0.00000000      -0.00183582       9.43975248 </v>
    </varray>
    <i name="volume">    620.66228284 </i>
    <varray name="rec_basis" >
     <v>       0.13087482       0.00000000       0.00000000 </v>
     <v>       0.00000000       0.11621152       0.00002260 </v>
     <v>       0.00000000       0.00661543       0.10593627 </v>
    </varray>
   </crystal>
   <varray name="positions" >
    <v>       0.42435824       0.08348345       0.74276318 </v>
    <v>       0.81141668       0.56567794       0.08693229 </v>
    <v>       0.31141668       0.93432206       0.41306771 </v>
    <v>       0.18858332       0.43432206       0.91306771 </v>
    <v>       0.68858332       0.06567794       0.58693229 </v>
    <v>       0.10144666       0.65879158       0.50603434 </v>
    <v>       0.60144666       0.84120842       0.99396566 </v>
    <v>       0.89855334       0.34120842       0.49396566 </v>
    <v>       0.39855334       0.15879158       0.00603434 </v>
    <v>       0.92435824       0.41651655       0.75723682 </v>
    <v>       0.57564176       0.91651655       0.25723682 </v>
    <v>       0.07564176       0.58348345       0.24276318 </v>
    <v>       0.67436244       0.51832894       0.60462239 </v>
    <v>       0.17436244       0.98167106       0.89537761 </v>
    <v>       0.32563756       0.48167106       0.39537761 </v>
    <v>       0.82563756       0.01832894       0.10462239 </v>
    <v>       0.46801329       0.27773004       0.55551079 </v>
    <v>       0.96801329       0.22226996       0.94448921 </v>
    <v>       0.53198671       0.72226996       0.44448921 </v>
    <v>       0.03198671       0.77773004       0.05551079 </v>
    <v>       0.79341018       0.53666795       0.72909601 </v>
    <v>       0.34925904       0.50625592       0.92889464 </v>
    <v>       0.84925904       0.99374408       0.57110536 </v>
    <v>       0.65074096       0.49374408       0.07110536 </v>
    <v>       0.15074096       0.00625592       0.42889464 </v>
    <v>       0.55302104       0.75776833       0.87492786 </v>
    <v>       0.05302104       0.74223167       0.62507214 </v>
    <v>       0.44697896       0.24223167       0.12507214 </v>
    <v>       0.29341018       0.96333205       0.77090399 </v>
    <v>       0.94697896       0.25776833       0.37492786 </v>
    <v>       0.70658982       0.03666795       0.22909601 </v>
    <v>       0.20658982       0.46333205       0.27090399 </v>
    <v>       0.46719289       0.18367317       0.87361945 </v>
    <v>       0.96719289       0.31632683       0.62638055 </v>
    <v>       0.53280711       0.81632683       0.12638055 </v>
    <v>       0.03280711       0.68367317       0.37361945 </v>
    <v>       0.59016778       0.00960057       0.69664376 </v>
    <v>       0.09016778       0.49039943       0.80335624 </v>
    <v>       0.40983222       0.99039943       0.30335624 </v>
    <v>       0.90983222       0.50960057       0.19664376 </v>
    <v>       0.35002277       0.18270552       0.63612248 </v>
    <v>       0.85002277       0.31729448       0.86387752 </v>
    <v>       0.64997723       0.81729448       0.36387752 </v>
    <v>       0.14997723       0.68270552       0.13612248 </v>
    <v>       0.52826145       0.41571965       0.64880978 </v>
    <v>       0.02826145       0.08428035       0.85119022 </v>
    <v>       0.47173855       0.58428035       0.35119022 </v>
    <v>       0.97173855       0.91571965       0.14880978 </v>
    <v>       0.60737179       0.67603660       0.58144905 </v>
    <v>       0.10737179       0.82396340       0.91855095 </v>
    <v>       0.39262821       0.32396340       0.41855095 </v>
    <v>       0.87303568       0.68270585       0.00952505 </v>
    <v>       0.77105564       0.45610054       0.47911378 </v>
    <v>       0.27105564       0.04389946       0.02088622 </v>
    <v>       0.22894436       0.54389946       0.52088622 </v>
    <v>       0.72894436       0.95610054       0.97911378 </v>
    <v>       0.62696432       0.18270585       0.50952505 </v>
    <v>       0.12696432       0.31729415       0.99047495 </v>
    <v>       0.37303568       0.81729415       0.49047495 </v>
    <v>       0.89262821       0.17603660       0.08144905 </v>
    <v>       0.59043101       0.39379935       0.87362234 </v>
    <v>       0.09043101       0.10620065       0.62637766 </v>
    <v>       0.40956899       0.60620065       0.12637766 </v>
    <v>       0.90956899       0.89379935       0.37362234 </v>
    <v>       0.81770102       0.81556267       0.76151318 </v>
    <v>       0.31770102       0.68443733       0.73848682 </v>
    <v>       0.18229898       0.18443733       0.23848682 </v>
    <v>       0.68229898       0.31556267       0.26151318 </v>
   </varray>
  </structure>
  <varray name="forces" >
   <v>       0.08560741      -0.09767352      -0.01202306 </v>
   <v>       0.23979965      -0.11891714       0.40556754 </v>
   <v>       0.23979965       0.11891714      -0.40556754 </v>
   <v>      -0.23979965       0.11891714      -0.40556754 </v>
   <v>      -0.23979965      -0.11891714       0.40556754 </v>
   <v>      -0.04687948      -0.09006473      -0.11748852 </v>
   <v>      -0.04687948       0.09006473       0.11748852 </v>
   <v>       0.04687948       0.09006473       0.11748852 </v>
   <v>       0.04687948      -0.09006473      -0.11748852 </v>
   <v>       0.08560741       0.09767352       0.01202306 </v>
   <v>      -0.08560741       0.09767352       0.01202306 </v>
   <v>      -0.08560741      -0.09767352      -0.01202306 </v>
   <v>       0.07572217       0.01538393       0.04912259 </v>
   <v>       0.07572217      -0.01538393      -0.04912259 </v>
   <v>      -0.07572217      -0.01538393      -0.04912259 </v>
   <v>      -0.07572217       0.01538393       0.04912259 </v>
   <v>       0.03868124       0.02789554       0.01831775 </v>
   <v>       0.03868124      -0.02789554      -0.01831775 </v>
   <v>      -0.03868124      -0.02789554      -0.01831775 </v>
   <v>      -0.03868124       0.02789554       0.01831775 </v>
   <v>      -0.00328918       0.02325803      -0.08641067 </v>
   <v>      -0.12987743       0.04513490      -0.07447874 </v>
   <v>      -0.12987743      -0.04513490       0.07447874 </v>
   <v>       0.12987743      -0.04513490       0.07447874 </v>
   <v>       0.12987743       0.04513490      -0.07447874 </v>
   <v>       0.02955867       0.07262453      -0.06541048 </v>
   <v>       0.02955867      -0.07262453       0.06541048 </v>
   <v>      -0.02955867      -0.07262453       0.06541048 </v>
   <v>      -0.00328918      -0.02325803       0.08641067 </v>
   <v>      -0.02955867       0.07262453      -0.06541048 </v>
   <v>       0.00328918       0.02325803      -0.08641067 </v>
   <v>       0.00328918      -0.02325803       0.08641067 </v>
   <v>      -0.24074537      -0.12070662       0.35060491 </v>
   <v>      -0.24074537       0.12070662      -0.35060491 </v>
   <v>       0.24074537       0.12070662      -0.35060491 </v>
   <v>       0.24074537      -0.12070662       0.35060491 </v>
   <v>       0.20061926       0.15412780      -0.33533024 </v>
   <v>       0.20061926      -0.15412780       0.33533024 </v>
   <v>      -0.20061926      -0.15412780       0.33533024 </v>
   <v>      -0.20061926       0.15412780      -0.33533024 </v>
   <v>       0.18925962      -0.08211149       0.05466483 </v>
   <v>       0.18925962       0.08211149      -0.05466483 </v>
   <v>      -0.18925962       0.08211149      -0.05466483 </v>
   <v>      -0.18925962      -0.08211149       0.05466483 </v>
   <v>       0.02615466       0.02985513      -0.12832405 </v>
   <v>       0.02615466      -0.02985513       0.12832405 </v>
   <v>      -0.02615466      -0.02985513       0.12832405 </v>
   <v>      -0.02615466       0.02985513      -0.12832405 </v>
   <v>      -0.02826949      -0.05942461       0.04717927 </v>
   <v>      -0.02826949       0.05942461      -0.04717927 </v>
   <v>       0.02826949       0.05942461      -0.04717927 </v>
   <v>       0.08176775       0.05862038      -0.02187842 </v>
   <v>       0.02112845      -0.24128799       0.10755513 </v>
   <v>       0.02112845       0.24128799      -0.10755513 </v>
   <v>      -0.02112845       0.24128799      -0.10755513 </v>
   <v>      -0.02112845      -0.24128799       0.10755513 </v>
   <v>      -0.08176775       0.05862038      -0.02187842 </v>
   <v>      -0.08176775      -0.05862038       0.02187842 </v>
   <v>       0.08176775      -0.05862038       0.02187842 </v>
   <v>       0.02826949      -0.05942461       0.04717927 </v>
   <v>      -0.03762073      -0.00885617      -0.04195699 </v>
   <v>      -0.03762073       0.00885617       0.04195699 </v>
   <v>       0.03762073       0.00885617       0.04195699 </v>
   <v>       0.03762073      -0.00885617      -0.04195699 </v>
   <v>      -0.10262600       0.00102267      -0.03101589 </v>
   <v>      -0.10262600      -0.00102267       0.03101589 </v>
   <v>       0.10262600      -0.00102267       0.03101589 </v>
   <v>       0.10262600       0.00102267      -0.03101589 </v>
  </varray>
  <varray name="stress" >
[...]
       <r>    15.6076     0.0000   259.0000 </r>
       <r>    15.7298     0.0000   259.0000 </r>
       <r>    15.8519     0.0000   259.0000 </r>
       <r>    15.9741     0.0000   259.0000 </r>
      </set>
      <set comment="spin 2">
       <r>   -20.6763     0.0000     0.0000 </r>
       <r>   -20.5541     0.0000     0.0000 </r>
       <r>   -20.4319     0.0000     0.0000 </r>
       <r>   -20.3098     0.0000     0.0000 </r>
       <r>   -20.1876     0.0000     0.0000 </r>
       <r>   -20.0654     0.0000     0.0000 </r>
       <r>   -19.9433     0.0000     0.0000 </r>
       <r>   -19.8211     0.0000     0.0000 </r>
       <r>   -19.6989     0.0000     0.0000 </r>
       <r>   -19.5768     0.0000     0.0000 </r>
       <r>   -19.4546     0.0000     0.0000 </r>
       <r>   -19.3324     0.0000     0.0000 </r>
       <r>   -19.2103     0.0000     0.0000 </r>
       <r>   -19.0881     0.0000     0.0000 </r>
       <r>   -18.9659     8.6611     0.2798 </r>
       <r>   -18.8438     8.7750     1.6718 </r>
       <r>   -18.7216    24.6676     2.8438 </r>
       <r>   -18.5994    10.0228     5.0908 </r>
       <r>   -18.4773    39.4271     8.4049 </r>
       <r>   -18.3551     7.6856    10.0818 </r>
       <r>   -18.2329    12.2811    11.6992 </r>
       <r>   -18.1108     0.0000    12.0000 </r>
       <r>   -17.9886     5.1842    12.3485 </r>
       <r>   -17.8664     6.7371    13.1738 </r>
       <r>   -17.7442    23.2962    15.3137 </r>
       <r>   -17.6221     0.0000    16.0000 </r>
       <r>   -17.4999     4.9676    16.3454 </r>
       <r>   -17.3777    10.1970    17.2104 </r>
       <r>   -17.2556     0.0000    18.0000 </r>
       <r>   -17.1334    14.4442    19.1313 </r>
       <r>   -17.0112     3.7919    19.9957 </r>
       <r>   -16.8891     5.7387    20.1780 </r>
       <r>   -16.7669    16.7092    21.5870 </r>
       <r>   -16.6447     0.0000    22.0000 </r>
       <r>   -16.5226     0.0000    24.0000 </r>
       <r>   -16.4004    33.7704    25.1202 </r>
       <r>   -16.2782     8.3598    26.8769 </r>
       <r>   -16.1561    26.0947    28.8889 </r>
       <r>   -16.0339    15.1370    31.2314 </r>
       <r>   -15.9117     0.0000    32.0000 </r>
       <r>   -15.7896     0.0000    32.0000 </r>
       <r>   -15.6674     6.6766    33.9691 </r>
       <r>   -15.5452     0.0000    36.0000 </r>
       <r>   -15.4231    36.7988    38.7572 </r>
       <r>   -15.3009    22.0703    41.7489 </r>
       <r>   -15.1787    38.8150    46.4542 </r>
       <r>   -15.0566     7.2530    48.8912 </r>
       <r>   -14.9344     0.0000    50.0000 </r>
       <r>   -14.8122     0.0000    50.0000 </r>
       <r>   -14.6901     6.4669    50.9224 </r>
       <r>   -14.5679     0.0000    52.0000 </r>
       <r>   -14.4457     0.0000    52.0000 </r>
       <r>   -14.3235     0.0000    52.0000 </r>
       <r>   -14.2014     0.0000    52.0000 </r>
       <r>   -14.0792     0.0000    52.0000 </r>
       <r>   -13.9570     0.0000    52.0000 </r>
       <r>   -13.8349     0.0000    52.0000 </r>
       <r>   -13.7127     0.0000    52.0000 </r>
       <r>   -13.5905     0.0000    52.0000 </r>
       <r>   -13.4684     0.0000    52.0000 </r>
       <r>   -13.3462     0.0000    52.0000 </r>
       <r>   -13.2240     0.0000    52.0000 </r>
       <r>   -13.1019     0.0000    52.0000 </r>
       <r>   -12.9797     0.0000    52.0000 </r>
       <r>   -12.8575     0.0000    52.0000 </r>
       <r>   -12.7354     0.0000    52.0000 </r>
       <r>   -12.6132     0.0000    52.0000 </r>
       <r>   -12.4910     0.0000    52.0000 </r>
       <r>   -12.3689     0.0000    52.0000 </r>
       <r>   -12.2467     0.0000    52.0000 </r>
       <r>   -12.1245     0.0000    52.0000 </r>
       <r>   -12.0024     0.0000    52.0000 </r>
       <r>   -11.8802     0.0000    52.0000 </r>
       <r>   -11.7580     0.0000    52.0000 </r>
       <r>   -11.6359     0.0000    52.0000 </r>
       <r>   -11.5137     0.0000    52.0000 </r>
       <r>   -11.3915     0.0000    52.0000 </r>
       <r>   -11.2693     0.0000    52.0000 </r>
       <r>   -11.1472     0.0000    52.0000 </r>
       <r>   -11.0250     0.0000    52.0000 </r>
       <r>   -10.9028     0.0000    52.0000 </r>
       <r>   -10.7807     0.0000    52.0000 </r>
       <r>   -10.6585     0.0000    52.0000 </r>
       <r>   -10.5363     0.0000    52.0000 </r>
       <r>   -10.4142     0.0000    52.0000 </r>
       <r>   -10.2920     0.0000    52.0000 </r>
       <r>   -10.1698     0.0000    52.0000 </r>
       <r>   -10.0477     0.0000    52.0000 </r>
       <r>    -9.9255     0.0000    52.0000 </r>
       <r>    -9.8033     0.0000    52.0000 </r>
       <r>    -9.6812     0.0000    52.0000 </r>
       <r>    -9.5590     0.0000    52.0000 </r>
       <r>    -9.4368     0.0000    52.0000 </r>
       <r>    -9.3147     0.0000    52.0000 </r>
       <r>    -9.1925     0.0000    52.0000 </r>
       <r>    -9.0703     0.0000    52.0000 </r>
       <r>    -8.9482     0.0000    52.0000 </r>
       <r>    -8.8260     0.0000    52.0000 </r>
       <r>    -8.7038     0.0000    52.0000 </r>
       <r>    -8.5817     0.0000    52.0000 </r>
       <r>    -8.4595     0.0000    52.0000 </r>
       <r>    -8.3373     0.0000    52.0000 </r>
       <r>    -8.2152     0.0000    52.0000 </r>
       <r>    -8.0930     0.0000    52.0000 </r>
       <r>    -7.9708     0.0000    52.0000 </r>
       <r>    -7.8486     0.0000    52.0000 </r>
       <r>    -7.7265     0.0000    52.0000 </r>
       <r>    -7.6043     0.0000    52.0000 </r>
       <r>    -7.4821     0.0000    52.0000 </r>
       <r>    -7.3600     0.0000    52.0000 </r>
       <r>    -7.2378     0.0000    52.0000 </r>
       <r>    -7.1156     0.0000    52.0000 </r>
       <r>    -6.9935     0.0000    52.0000 </r>
       <r>    -6.8713     0.6577    52.0033 </r>
       <r>    -6.7491    10.2019    52.7156 </r>
       <r>    -6.6270     6.0292    53.5223 </r>
       <r>    -6.5048     0.3800    53.9978 </r>
       <r>    -6.3826    16.3594    54.2369 </r>
       <r>    -6.2605    10.5150    55.8593 </r>
       <r>    -6.1383     0.0000    56.0000 </r>
       <r>    -6.0161     0.0000    56.0000 </r>
       <r>    -5.8940    26.6570    56.8060 </r>
       <r>    -5.7718    31.6615    59.5813 </r>
       <r>    -5.6496     0.0000    60.0000 </r>
       <r>    -5.5275     0.0000    60.0000 </r>
       <r>    -5.4053     7.0039    60.0218 </r>
       <r>    -5.2831     1.0057    62.0004 </r>
       <r>    -5.1610    10.5013    62.6810 </r>
       <r>    -5.0388     0.0000    64.0000 </r>
       <r>    -4.9166     0.0000    64.0000 </r>
       <r>    -4.7944    26.3506    65.5917 </r>
       <r>    -4.6723     8.9802    67.8423 </r>
       <r>    -4.5501    26.2410    68.6765 </r>
       <r>    -4.4279    15.9543    70.3258 </r>
       <r>    -4.3058    18.5576    72.2491 </r>
       <r>    -4.1836     2.6790    73.9817 </r>
       <r>    -4.0614     5.7482    74.5731 </r>
       <r>    -3.9393     4.3117    75.3697 </r>
       <r>    -3.8171    26.3937    76.6467 </r>
       <r>    -3.6949    16.9040    79.9153 </r>
       <r>    -3.5728    11.7654    80.5538 </r>
       <r>    -3.4506     6.9919    82.0691 </r>
       <r>    -3.3284    10.6659    83.7541 </r>
       <r>    -3.2063    23.4982    84.7977 </r>
       <r>    -3.0841    11.4004    86.9883 </r>
       <r>    -2.9619    33.2114    88.4898 </r>
       <r>    -2.8398    21.2236    90.2034 </r>
       <r>    -2.7176    17.2854    92.3939 </r>
       <r>    -2.5954    21.0270    94.5947 </r>
       <r>    -2.4733    21.9477    97.3853 </r>
       <r>    -2.3511    13.0247    99.6040 </r>
       <r>    -2.2289    32.6192   101.9247 </r>
       <r>    -2.1068    25.7940   105.0759 </r>
       <r>    -1.9846    24.0240   109.3106 </r>
       <r>    -1.8624    27.9316   113.6000 </r>
       <r>    -1.7403    26.9189   116.8846 </r>
       <r>    -1.6181    14.6701   119.2910 </r>
       <r>    -1.4959    13.1115   122.0373 </r>
       <r>    -1.3737    19.3772   124.0409 </r>
       <r>    -1.2516    16.6412   126.1968 </r>
       <r>    -1.1294     9.3659   127.5296 </r>
       <r>    -1.0072    13.6326   128.8862 </r>
       <r>    -0.8851    22.7150   130.6034 </r>
       <r>    -0.7629    11.3002   131.9915 </r>
       <r>    -0.6407     9.4059   133.3832 </r>
       <r>    -0.5186    14.7669   134.8750 </r>
       <r>    -0.3964    14.1630   136.4761 </r>
       <r>    -0.2742    25.6948   138.3927 </r>
       <r>    -0.1521    55.9511   140.9980 </r>
       <r>    -0.0299    27.4766   143.9069 </r>
       <r>     0.0923    32.1101   146.4985 </r>
       <r>     0.2144    17.7461   149.0582 </r>
       <r>     0.3366    26.8589   151.6262 </r>
       <r>     0.4588    21.8837   154.3597 </r>
       <r>     0.5809    16.4495   157.8569 </r>
       <r>     0.7031    27.9328   160.9928 </r>
       <r>     0.8253    29.0446   164.4477 </r>
       <r>     0.9474    14.4624   167.2242 </r>
       <r>     1.0696    14.9081   169.8403 </r>
       <r>     1.1918    23.3856   172.1917 </r>
       <r>     1.3139    14.8323   175.4000 </r>
       <r>     1.4361    20.7932   178.7596 </r>
       <r>     1.5583    18.6945   181.2467 </r>
       <r>     1.6805    25.1931   184.2747 </r>
       <r>     1.8026    26.4361   186.7052 </r>
       <r>     1.9248    34.9670   189.4256 </r>
       <r>     2.0470     0.0000   192.0000 </r>
       <r>     2.1691     0.0000   192.0000 </r>
       <r>     2.2913     0.0000   192.0000 </r>
       <r>     2.4135     0.0000   192.0000 </r>
       <r>     2.5356     0.0000   192.0000 </r>
       <r>     2.6578     0.0000   192.0000 </r>
       <r>     2.7800     0.0000   192.0000 </r>
       <r>     2.9021     0.0000   192.0000 </r>
       <r>     3.0243     0.0000   192.0000 </r>
       <r>     3.1465     0.0000   192.0000 </r>
       <r>     3.2686     0.0000   192.0000 </r>
       <r>     3.3908     0.0000   192.0000 </r>
       <r>     3.5130     0.0000   192.0000 </r>
       <r>     3.6351     0.0000   192.0000 </r>
       <r>     3.7573     0.0000   192.0000 </r>
       <r>     3.8795     0.0000   192.0000 </r>
       <r>     4.0016     0.0000   192.0000 </r>
       <r>     4.1238     0.0000   192.0000 </r>
       <r>     4.2460     0.0000   192.0000 </r>
       <r>     4.3681     0.0000   192.0000 </r>
       <r>     4.4903     0.0000   192.0000 </r>
       <r>     4.6125     0.0000   192.0000 </r>
       <r>     4.7346     0.0000   192.0000 </r>
       <r>     4.8568     0.0000   192.0000 </r>
       <r>     4.9790     0.0000   192.0000 </r>
       <r>     5.1012     0.0000   192.0000 </r>
       <r>     5.2233     0.0000   192.0000 </r>
       <r>     5.3455     0.0000   192.0000 </r>
       <r>     5.4677     0.0000   192.0000 </r>
       <r>     5.5898     0.0000   192.0000 </r>
       <r>     5.7120     0.0000   192.0000 </r>
       <r>     5.8342     0.0000   192.0000 </r>
       <r>     5.9563     0.0000   192.0000 </r>
       <r>     6.0785     0.0000   192.0000 </r>
       <r>     6.2007     0.0000   192.0000 </r>
       <r>     6.3228     0.0000   192.0000 </r>
       <r>     6.4450     0.0000   192.0000 </r>
       <r>     6.5672     0.0000   192.0000 </r>
       <r>     6.6893     0.0000   192.0000 </r>
       <r>     6.8115     0.0000   192.0000 </r>
       <r>     6.9337     0.0000   192.0000 </r>
       <r>     7.0558     0.0000   192.0000 </r>
       <r>     7.1780     0.0000   192.0000 </r>
       <r>     7.3002     0.5108   192.0361 </r>
       <r>     7.4223     0.9517   192.1243 </r>
       <r>     7.5445     1.9934   192.3017 </r>
       <r>     7.6667     2.7470   192.6366 </r>
       <r>     7.7888     3.9025   193.0104 </r>
       <r>     7.9110     4.9913   193.7398 </r>
       <r>     8.0332    12.8660   194.0887 </r>
       <r>     8.1554     8.5157   195.7982 </r>
       <r>     8.2775     0.0000   196.0000 </r>
       <r>     8.3997     1.1851   196.0028 </r>
       <r>     8.5219     8.7088   196.7719 </r>
       <r>     8.6440    14.3247   198.0894 </r>
       <r>     8.7662    11.5702   199.6972 </r>
       <r>     8.8884    18.3830   201.8795 </r>
       <r>     9.0105    21.5250   203.7986 </r>
       <r>     9.1327    12.8050   205.3769 </r>
       <r>     9.2549    16.1973   207.1892 </r>
       <r>     9.3770     5.1763   208.1365 </r>
       <r>     9.4992    23.7694   209.7369 </r>
       <r>     9.6214    11.3373   211.5758 </r>
       <r>     9.7435    10.8270   213.9812 </r>
       <r>     9.8657    16.3716   215.5410 </r>
       <r>     9.9879     8.3406   217.1051 </r>
       <r>    10.1100    24.6223   218.6839 </r>
       <r>    10.2322     3.5051   219.7746 </r>
       <r>    10.3544    13.0953   220.8223 </r>
       <r>    10.4765     7.6004   221.8997 </r>
       <r>    10.5987    15.8587   223.3468 </r>
       <r>    10.7209     6.0205   224.4032 </r>
       <r>    10.8430     6.2980   225.3203 </r>
       <r>    10.9652     3.1780   225.8832 </r>
       <r>    11.0874     5.4550   226.2342 </r>
       <r>    11.2095     6.7219   227.2082 </r>
       <r>    11.3317     2.6776   227.9505 </r>
       <r>    11.4539     8.6079   228.5702 </r>
       <r>    11.5761     4.6299   229.4871 </r>
       <r>    11.6982     5.4816   230.0376 </r>
       <r>    11.8204     5.3703   230.6895 </r>
       <r>    11.9426     4.0077   231.5273 </r>
       <r>    12.0647     3.6987   232.0135 </r>
       <r>    12.1869    10.0762   232.9164 </r>
       <r>    12.3091     3.2355   233.9655 </r>
       <r>    12.4312     7.9076   234.7779 </r>
       <r>    12.5534     6.4272   235.9223 </r>
       <r>    12.6756     8.0173   237.3973 </r>
       <r>    12.7977    13.0687   238.7404 </r>
       <r>    12.9199     8.5134   240.3216 </r>
       <r>    13.0421    29.2957   241.5727 </r>
       <r>    13.1642     7.3803   242.9792 </r>
       <r>    13.2864    10.6594   244.2711 </r>
       <r>    13.4086    19.6216   246.0501 </r>
       <r>    13.5307    18.2345   247.2663 </r>
       <r>    13.6529    11.4723   248.6809 </r>
       <r>    13.7751    17.6904   249.8552 </r>
       <r>    13.8972    13.7204   251.6704 </r>
       <r>    14.0194    12.0445   253.0976 </r>
       <r>    14.1416    18.8189   255.0425 </r>
       <r>    14.2637    20.0547   257.0554 </r>
       <r>    14.3859     0.0000   259.0000 </r>
       <r>    14.5081     0.0000   259.0000 </r>
       <r>    14.6303     0.0000   259.0000 </r>
       <r>    14.7524     0.0000   259.0000 </r>
       <r>    14.8746     0.0000   259.0000 </r>
       <r>    14.9968     0.0000   259.0000 </r>
       <r>    15.1189     0.0000   259.0000 </r>
       <r>    15.2411     0.0000   259.0000 </r>
       <r>    15.3633     0.0000   259.0000 </r>
       <r>    15.4854     0.0000   259.0000 </r>
       <r>    15.6076     0.0000   259.0000 </r>
       <r>    15.7298     0.0000   259.0000 </r>
       <r>    15.8519     0.0000   259.0000 </r>
       <r>    15.9741     0.0000   259.0000 </r>
      </set>
     </set>
    </array>
   </total>
  </dos>
 </calculation>
 <structure name="finalpos" >
  <crystal>
   <varray name="basis" >
    <v>       7.68495356       0.00000000       0.00000000 </v>
    <v>       0.00000000       8.64261204      -0.51996771 </v>
    <v>       0.00000000       0.01675954       9.43252119 </v>
   </varray>
   <i name="volume">    626.55684331 </i>
   <varray name="rec_basis" >
    <v>       0.13012440       0.00000000       0.00000000 </v>
    <v>       0.00000000       0.11569339      -0.00020556 </v>
    <v>       0.00000000       0.00637760       0.10600486 </v>
   </varray>
  </crystal>
  <varray name="positions" >
   <v>       0.42627325       0.08255740       0.74555340 </v>
   <v>       0.81330641       0.56524175       0.08772823 </v>
   <v>       0.31330641       0.93475825       0.41227177 </v>
   <v>       0.18669359       0.43475825       0.91227177 </v>
   <v>       0.68669359       0.06524175       0.58772823 </v>
   <v>       0.10291508       0.65897807       0.50895352 </v>
   <v>       0.60291508       0.84102193       0.99104648 </v>
   <v>       0.89708492       0.34102193       0.49104648 </v>
   <v>       0.39708492       0.15897807       0.00895352 </v>
   <v>       0.92627325       0.41744260       0.75444660 </v>
   <v>       0.57372675       0.91744260       0.25444660 </v>
   <v>       0.07372675       0.58255740       0.24555340 </v>
   <v>       0.67530163       0.51730881       0.60308468 </v>
   <v>       0.17530163       0.98269119       0.89691532 </v>
   <v>       0.32469837       0.48269119       0.39691532 </v>
   <v>       0.82469837       0.01730881       0.10308468 </v>
   <v>       0.46924837       0.27767637       0.55718719 </v>
   <v>       0.96924837       0.22232363       0.94281281 </v>
   <v>       0.53075163       0.72232363       0.44281281 </v>
   <v>       0.03075163       0.77767637       0.05718719 </v>
   <v>       0.79703893       0.53738562       0.72489611 </v>
   <v>       0.34620679       0.50777214       0.93006374 </v>
   <v>       0.84620679       0.99222786       0.56993626 </v>
   <v>       0.65379321       0.49222786       0.06993626 </v>
   <v>       0.15379321       0.00777214       0.43006374 </v>
   <v>       0.55535721       0.75744481       0.87208793 </v>
   <v>       0.05535721       0.74255519       0.62791207 </v>
   <v>       0.44464279       0.24255519       0.12791207 </v>
   <v>       0.29703893       0.96261438       0.77510389 </v>
   <v>       0.94464279       0.25744481       0.37208793 </v>
   <v>       0.70296107       0.03738562       0.22489611 </v>
   <v>       0.20296107       0.46261438       0.27510389 </v>
   <v>       0.46787546       0.18176942       0.87772991 </v>
   <v>       0.96787546       0.31823058       0.62227009 </v>
   <v>       0.53212454       0.81823058       0.12227009 </v>
   <v>       0.03212454       0.68176942       0.37772991 </v>
   <v>       0.59151825       0.01088201       0.69827320 </v>
   <v>       0.09151825       0.48911799       0.80172680 </v>
   <v>       0.40848175       0.98911799       0.30172680 </v>
   <v>       0.90848175       0.51088201       0.19827320 </v>
   <v>       0.35279274       0.18239629       0.63936751 </v>
   <v>       0.85279274       0.31760371       0.86063249 </v>
   <v>       0.64720726       0.81760371       0.36063249 </v>
   <v>       0.14720726       0.68239629       0.13936751 </v>
   <v>       0.53157784       0.41449365       0.65008777 </v>
   <v>       0.03157784       0.08550635       0.84991223 </v>
   <v>       0.46842216       0.58550635       0.34991223 </v>
   <v>       0.96842216       0.91449365       0.15008777 </v>
   <v>       0.60765497       0.67397956       0.57883907 </v>
   <v>       0.10765497       0.82602044       0.92116093 </v>
   <v>       0.39234503       0.32602044       0.42116093 </v>
   <v>       0.87510984       0.68148645       0.00930054 </v>
   <v>       0.76742046       0.45203232       0.47686567 </v>
   <v>       0.26742046       0.04796768       0.02313433 </v>
   <v>       0.23257954       0.54796768       0.52313433 </v>
   <v>       0.73257954       0.95203232       0.97686567 </v>
   <v>       0.62489016       0.18148645       0.50930054 </v>
   <v>       0.12489016       0.31851355       0.99069946 </v>
   <v>       0.37510984       0.81851355       0.49069946 </v>
   <v>       0.89234503       0.17397956       0.07883907 </v>
   <v>       0.59044928       0.39191430       0.87317558 </v>
   <v>       0.09044928       0.10808570       0.62682442 </v>
   <v>       0.40955072       0.60808570       0.12682442 </v>
   <v>       0.90955072       0.89191430       0.37317558 </v>
   <v>       0.81635722       0.81380267       0.75881839 </v>
   <v>       0.31635722       0.68619733       0.74118161 </v>
   <v>       0.18364278       0.18619733       0.24118161 </v>
   <v>       0.68364278       0.31380267       0.25881839 </v>
  </varray>
 </structure>
</modeling>
