       N       E                     dE             d eps       ncg     rms          rms(c)
DAV:   1     0.275700307471E+04    0.27570E+04   -0.19785E+05  6120   0.139E+03

DAV:   2    -0.389281205901E+03   -0.31463E+04   -0.30551E+04  7308   0.338E+02

DAV:   3    -0.637184585729E+03   -0.24790E+03   -0.24672E+03  7288   0.100E+02

DAV:   4    -0.641255663014E+03   -0.40711E+01   -0.40600E+01  7312   0.139E+01

DAV:   5    -0.641350830175E+03   -0.95167E-01   -0.95053E-01  7400   0.197E+00    0.622E+01
RMM:   6    -0.470356792830E+03    0.17099E+03   -0.38075E+02  6050   0.369E+01    0.203E+01
RMM:   7    -0.464878902044E+03    0.54779E+01   -0.41221E+01  6048   0.114E+01    0.157E+01
RMM:   8    -0.467603962293E+03   -0.27251E+01   -0.50466E+00  6048   0.559E+00    0.107E+01
RMM:   9    -0.483553417026E+03   -0.15949E+02   -0.56957E+00  6048   0.454E+00    0.813E+00
RMM:  10    -0.498214301028E+03   -0.14661E+02   -0.47540E+00  6048   0.355E+00    0.692E+00
RMM:  11    -0.545982811238E+03   -0.47769E+02   -0.42063E+01  6048   0.947E+00    0.420E+00
RMM:  12    -0.562158503980E+03   -0.16176E+02   -0.16024E+01  6048   0.467E+00    0.282E+00
RMM:  13    -0.563699842024E+03   -0.15413E+01   -0.27583E+00  6048   0.261E+00    0.132E+00
RMM:  14    -0.564333349592E+03   -0.63351E+00   -0.11598E+00  6048   0.166E+00    0.206E+00
RMM:  15    -0.564266469571E+03    0.66880E-01   -0.28234E-01  6048   0.967E-01    0.333E-01
RMM:  16    -0.564267533906E+03   -0.10643E-02   -0.34898E-02  6048   0.327E-01    0.186E-01
RMM:  17    -0.564263116980E+03    0.44169E-02   -0.29344E-03  6048   0.102E-01    0.101E-01
RMM:  18    -0.564262769990E+03    0.34699E-03   -0.29962E-03  6048   0.989E-02    0.657E-02
RMM:  19    -0.564262635108E+03    0.13488E-03   -0.38582E-04  6048   0.378E-02    0.132E-02
RMM:  20    -0.564262628301E+03    0.68074E-05   -0.10082E-04  6048   0.197E-02    0.148E-02
RMM:  21    -0.564262618593E+03    0.97074E-05   -0.10608E-05  5045   0.722E-03    0.969E-03
RMM:  22    -0.564262618840E+03   -0.24665E-06   -0.34245E-05  6030   0.108E-02    0.693E-03
RMM:  23    -0.564262617135E+03    0.17044E-05   -0.15422E-06  3744   0.288E-03

   1 F= -.56426262E+03 E0= -.56426262E+03  d E =-.564263E+03  mag=     0.0000
       N       E                     dE             d eps       ncg     rms          rms(c)
DAV:   1    -0.626201147206E+03   -0.61939E+02   -0.39162E+03  6736   0.141E+02    0.613E+01
RMM:   2    -0.557095282413E+03    0.69106E+02   -0.28571E+02  6048   0.337E+01    0.151E+01
RMM:   3    -0.552781854524E+03    0.43134E+01   -0.28814E+01  6048   0.882E+00    0.444E+00
RMM:   4    -0.551658913893E+03    0.11229E+01   -0.23025E+00  6048   0.295E+00    0.233E+00
RMM:   5    -0.551368447243E+03    0.29047E+00   -0.68995E-01  6048   0.136E+00    0.113E+00
RMM:   6    -0.551356083566E+03    0.12364E-01   -0.74952E-01  6048   0.144E+00    0.151E+00
RMM:   7    -0.551282288532E+03    0.73795E-01   -0.21159E-01  6048   0.829E-01    0.206E-01
RMM:   8    -0.551277559510E+03    0.47290E-02   -0.63711E-02  6048   0.403E-01    0.402E-01
RMM:   9    -0.551272361210E+03    0.51983E-02   -0.10076E-02  6048   0.176E-01    0.129E-01
RMM:  10    -0.551271833884E+03    0.52733E-03   -0.66091E-03  6048   0.129E-01    0.744E-02
RMM:  11    -0.551271668208E+03    0.16568E-03   -0.52236E-04  6048   0.396E-02    0.241E-02
RMM:  12    -0.551271677154E+03   -0.89456E-05   -0.32554E-04  6048   0.289E-02    0.240E-02
RMM:  13    -0.551271662140E+03    0.15014E-04   -0.35851E-05  5914   0.112E-02    0.750E-03
RMM:  14    -0.551271661762E+03    0.37771E-06   -0.33576E-05  5964   0.980E-03    0.864E-03
RMM:  15    -0.551271659690E+03    0.20727E-05   -0.26803E-06  3744   0.335E-03    0.419E-03
RMM:  16    -0.551271659544E+03    0.14594E-06   -0.47276E-06  3846   0.389E-03

   2 F= -.55127166E+03 E0= -.55127166E+03  d E =0.129910E+02  mag=     0.0000
       N       E                     dE             d eps       ncg     rms          rms(c)
DAV:   1    -0.609161282954E+03   -0.57890E+02   -0.20044E+03  6572   0.109E+02    0.470E+01
RMM:   2    -0.571047401490E+03    0.38114E+02   -0.18196E+02  6048   0.268E+01    0.114E+01
RMM:   3    -0.569213728590E+03    0.18337E+01   -0.13041E+01  6048   0.631E+00    0.416E+00
RMM:   4    -0.568569315300E+03    0.64441E+00   -0.18522E+00  6048   0.270E+00    0.163E+00
RMM:   5    -0.568497541235E+03    0.71774E-01   -0.19604E-01  6048   0.763E-01    0.515E-01
RMM:   6    -0.568473551095E+03    0.23990E-01   -0.12724E-01  6048   0.591E-01    0.597E-01
RMM:   7    -0.568459299239E+03    0.14252E-01   -0.65357E-02  6048   0.458E-01    0.193E-01
RMM:   8    -0.568455410623E+03    0.38886E-02   -0.60297E-03  6051   0.109E-01    0.153E-01
RMM:   9    -0.568454042970E+03    0.13677E-02   -0.56842E-03  6048   0.122E-01    0.464E-02
RMM:  10    -0.568453896881E+03    0.14609E-03   -0.53992E-04  6061   0.342E-02    0.164E-02
RMM:  11    -0.568453889932E+03    0.69484E-05   -0.13890E-04  6050   0.185E-02    0.164E-02
RMM:  12    -0.568453880819E+03    0.91132E-05   -0.20469E-05  5488   0.830E-03    0.612E-03
RMM:  13    -0.568453879461E+03    0.13582E-05   -0.85761E-06  5235   0.535E-03

   3 F= -.56845388E+03 E0= -.56845388E+03  d E =-.419126E+01  mag=     0.0000
       N       E                     dE             d eps       ncg     rms          rms(c)
DAV:   1    -0.568513687312E+03   -0.59806E-01   -0.15392E+00  7240   0.297E+00    0.128E+00
RMM:   2    -0.568484206873E+03    0.29480E-01   -0.12010E-01  6048   0.698E-01    0.303E-01
RMM:   3    -0.568482786477E+03    0.14204E-02   -0.94396E-03  6048   0.168E-01    0.968E-02
RMM:   4    -0.568482352916E+03    0.43356E-03   -0.99117E-04  6048   0.627E-02    0.429E-02
RMM:   5    -0.568482290914E+03    0.62002E-04   -0.14837E-04  6048   0.207E-02    0.155E-02
RMM:   6    -0.568482280321E+03    0.10593E-04   -0.13497E-04  6048   0.196E-02    0.196E-02
RMM:   7    -0.568482268193E+03    0.12128E-04   -0.11111E-04  6048   0.195E-02    0.115E-02
RMM:   8    -0.568482263899E+03    0.42934E-05   -0.94677E-06  4933   0.695E-03    0.786E-03
RMM:   9    -0.568482262441E+03    0.14585E-05   -0.14460E-05  5472   0.829E-03

   4 F= -.56848226E+03 E0= -.56848226E+03  d E =-.421965E+01  mag=     0.0000
       N       E                     dE             d eps       ncg     rms          rms(c)
DAV:   1    -0.580602493068E+03   -0.12120E+02   -0.75370E+02  6652   0.637E+01    0.277E+01
RMM:   2    -0.566316407498E+03    0.14286E+02   -0.57963E+01  6048   0.152E+01    0.633E+00
RMM:   3    -0.565490649106E+03    0.82576E+00   -0.45583E+00  6048   0.356E+00    0.201E+00
RMM:   4    -0.565190437604E+03    0.30021E+00   -0.62320E-01  6048   0.146E+00    0.107E+00
RMM:   5    -0.565122466739E+03    0.67971E-01   -0.10198E-01  6057   0.487E-01    0.437E-01
RMM:   6    -0.565097365054E+03    0.25102E-01   -0.12742E-01  6048   0.571E-01    0.579E-01
RMM:   7    -0.565084010179E+03    0.13355E-01   -0.62136E-02  6048   0.430E-01    0.160E-01
RMM:   8    -0.565081879907E+03    0.21303E-02   -0.77806E-03  6048   0.119E-01    0.195E-01
RMM:   9    -0.565080931284E+03    0.94862E-03   -0.74896E-03  6048   0.149E-01    0.522E-02
RMM:  10    -0.565080861731E+03    0.69554E-04   -0.27888E-04  6048   0.324E-02    0.175E-02
RMM:  11    -0.565080868313E+03   -0.65818E-05   -0.17253E-04  6048   0.257E-02    0.165E-02
RMM:  12    -0.565080858352E+03    0.99609E-05   -0.40806E-05  5941   0.150E-02    0.190E-03
RMM:  13    -0.565080857474E+03    0.87809E-06   -0.70913E-06  4483   0.721E-03

   5 F= -.56508086E+03 E0= -.56508086E+03  d E =0.340140E+01  mag=     0.0000
       N       E                     dE             d eps       ncg     rms          rms(c)
DAV:   1    -0.577367713182E+03   -0.12287E+02   -0.38411E+02  6728   0.469E+01    0.203E+01
RMM:   2    -0.569924834675E+03    0.74429E+01   -0.32263E+01  6048   0.113E+01    0.472E+00
RMM:   3    -0.569529294044E+03    0.39554E+00   -0.22793E+00  6048   0.259E+00    0.167E+00
RMM:   4    -0.569367476864E+03    0.16182E+00   -0.41084E-01  6048   0.119E+00    0.760E-01
RMM:   5    -0.569339278527E+03    0.28198E-01   -0.54083E-02  6048   0.372E-01    0.268E-01
RMM:   6    -0.569324993413E+03    0.14285E-01   -0.47734E-02  6048   0.344E-01    0.348E-01
RMM:   7    -0.569321312067E+03    0.36813E-02   -0.47822E-02  6048   0.379E-01    0.282E-01
RMM:   8    -0.569318522942E+03    0.27891E-02   -0.68706E-03  6048   0.149E-01    0.767E-02
RMM:   9    -0.569318464542E+03    0.58400E-04   -0.21928E-03  6048   0.901E-02    0.272E-02
RMM:  10    -0.569318397038E+03    0.67503E-04   -0.32438E-04  6048   0.476E-02    0.789E-03
RMM:  11    -0.569318395487E+03    0.15512E-05   -0.19395E-04  6048   0.375E-02    0.105E-02
RMM:  12    -0.569318362148E+03    0.33339E-04   -0.97075E-05  5498   0.273E-02    0.417E-03
RMM:  13    -0.569318356158E+03    0.59904E-05   -0.31392E-05  5201   0.150E-02    0.137E-03
RMM:  14    -0.569318353714E+03    0.24434E-05   -0.92267E-06  4519   0.816E-03    0.263E-03
RMM:  15    -0.569318353093E+03    0.62162E-06   -0.19658E-06  3848   0.357E-03

   6 F= -.56931835E+03 E0= -.56931835E+03  d E =-.836091E+00  mag=     0.0000
       N       E                     dE             d eps       ncg     rms          rms(c)
DAV:   1    -0.569321851303E+03   -0.34976E-02   -0.98173E-02  6916   0.745E-01    0.322E-01
RMM:   2    -0.569319972813E+03    0.18785E-02   -0.77746E-03  6048   0.177E-01    0.750E-02
RMM:   3    -0.569319877739E+03    0.95074E-04   -0.58422E-04  6048   0.414E-02    0.248E-02
RMM:   4    -0.569319840808E+03    0.36931E-04   -0.85563E-05  6048   0.174E-02    0.117E-02
RMM:   5    -0.569319835578E+03    0.52296E-05   -0.12130E-05  5085   0.554E-03    0.466E-03
RMM:   6    -0.569319834796E+03    0.78234E-06   -0.13969E-05  5558   0.626E-03

   7 F= -.56931983E+03 E0= -.56931983E+03  d E =-.837572E+00  mag=     0.0000
       N       E                     dE             d eps       ncg     rms          rms(c)
DAV:   1    -0.569330186907E+03   -0.10351E-01   -0.28881E+01  6080   0.125E+01    0.180E+00
RMM:   2    -0.569339996706E+03   -0.98098E-02   -0.97523E-01  6048   0.206E+00    0.845E-01
RMM:   3    -0.569320059427E+03    0.19937E-01   -0.42101E-02  6048   0.391E-01    0.394E-01
RMM:   4    -0.569315375457E+03    0.46840E-02   -0.11614E-02  6048   0.191E-01    0.122E-01
RMM:   5    -0.569315110744E+03    0.26471E-03   -0.19529E-03  6048   0.737E-02    0.444E-02
RMM:   6    -0.569315071860E+03    0.38884E-04   -0.21990E-04  6048   0.256E-02    0.184E-02
RMM:   7    -0.569315074274E+03   -0.24133E-05   -0.76043E-05  6048   0.186E-02    0.635E-03
RMM:   8    -0.569315109704E+03   -0.35430E-04   -0.11941E-04  5568   0.265E-02    0.459E-03
RMM:   9    -0.569315080384E+03    0.29320E-04   -0.13166E-04  5450   0.282E-02    0.282E-03
RMM:  10    -0.569315064607E+03    0.15777E-04   -0.27854E-05  5031   0.126E-02    0.158E-03
RMM:  11    -0.569315063584E+03    0.10233E-05   -0.28176E-06  3878   0.397E-03

   8 F= -.56931506E+03 E0= -.56931506E+03  d E =0.477121E-02  mag=     0.0000
       N       E                     dE             d eps       ncg     rms          rms(c)
DAV:   1    -0.569385788818E+03   -0.70724E-01   -0.74579E+00  6104   0.632E+00    0.889E-01
RMM:   2    -0.569388547856E+03   -0.27590E-02   -0.24421E-01  6048   0.103E+00    0.433E-01
RMM:   3    -0.569383312153E+03    0.52357E-02   -0.11539E-02  6048   0.203E-01    0.193E-01
RMM:   4    -0.569382191986E+03    0.11202E-02   -0.26000E-03  6048   0.902E-02    0.656E-02
RMM:   5    -0.569382098004E+03    0.93982E-04   -0.55016E-04  6048   0.392E-02    0.223E-02
RMM:   6    -0.569382082073E+03    0.15931E-04   -0.54619E-05  6048   0.127E-02    0.886E-03
RMM:   7    -0.569382078793E+03    0.32806E-05   -0.14616E-05  5472   0.713E-03    0.339E-03
RMM:   8    -0.569382080054E+03   -0.12611E-05   -0.93306E-06  4808   0.716E-03

   9 F= -.56938208E+03 E0= -.56938208E+03  d E =-.622453E-01  mag=     0.0000
       N       E                     dE             d eps       ncg     rms          rms(c)
DAV:   1    -0.569426895293E+03   -0.44817E-01   -0.10538E+01  6072   0.751E+00    0.862E-01
RMM:   2    -0.569430611104E+03   -0.37158E-02   -0.22728E-01  6048   0.102E+00    0.418E-01
RMM:   3    -0.569425853705E+03    0.47574E-02   -0.96578E-03  6048   0.186E-01    0.208E-01
RMM:   4    -0.569424498366E+03    0.13553E-02   -0.28396E-03  6048   0.950E-02    0.570E-02
RMM:   5    -0.569424376662E+03    0.12170E-03   -0.41586E-04  6048   0.351E-02    0.224E-02
RMM:   6    -0.569424351866E+03    0.24796E-04   -0.12286E-04  6048   0.237E-02    0.103E-02
RMM:   7    -0.569424377187E+03   -0.25322E-04   -0.18146E-04  6009   0.355E-02    0.555E-03
RMM:   8    -0.569424389095E+03   -0.11907E-04   -0.28081E-04  5758   0.453E-02    0.365E-03
RMM:   9    -0.569424313061E+03    0.76034E-04   -0.12058E-04  5507   0.287E-02    0.277E-03
RMM:  10    -0.569424309488E+03    0.35723E-05   -0.83276E-06  4547   0.681E-03    0.103E-03
RMM:  11    -0.569424309324E+03    0.16417E-06   -0.32715E-06  3922   0.435E-03

  10 F= -.56942431E+03 E0= -.56942431E+03  d E =-.422293E-01  mag=     0.0000
       N       E                     dE             d eps       ncg     rms          rms(c)
DAV:   1    -0.569432276744E+03   -0.79673E-02   -0.38931E+00  6176   0.456E+00    0.524E-01
RMM:   2    -0.569433637839E+03   -0.13611E-02   -0.83759E-02  6048   0.617E-01    0.255E-01
RMM:   3    -0.569431869523E+03    0.17683E-02   -0.36469E-03  6048   0.114E-01    0.126E-01
RMM:   4    -0.569431377074E+03    0.49245E-03   -0.10143E-03  6048   0.566E-02    0.355E-02
RMM:   5    -0.569431331462E+03    0.45612E-04   -0.15659E-04  6048   0.208E-02    0.135E-02
RMM:   6    -0.569431318450E+03    0.13013E-04   -0.33627E-05  6034   0.101E-02    0.626E-03
RMM:   7    -0.569431317295E+03    0.11545E-05   -0.24648E-05  5343   0.111E-02    0.339E-03
RMM:   8    -0.569431340128E+03   -0.22833E-04   -0.72452E-05  5328   0.207E-02    0.174E-03
RMM:   9    -0.569431311896E+03    0.28231E-04   -0.55913E-05  5216   0.179E-02    0.169E-03
RMM:  10    -0.569431309142E+03    0.27539E-05   -0.40904E-06  4031   0.462E-03    0.529E-04
RMM:  11    -0.569431308981E+03    0.16120E-06   -0.69772E-07  3342   0.177E-03

  11 F= -.56943131E+03 E0= -.56943131E+03  d E =-.492289E-01  mag=     0.0000
       N       E                     dE             d eps       ncg     rms          rms(c)
DAV:   1    -0.569450775384E+03   -0.19466E-01   -0.80517E+00  6048   0.654E+00    0.688E-01
RMM:   2    -0.569457884160E+03   -0.71088E-02   -0.18313E-01  6048   0.914E-01    0.370E-01
RMM:   3    -0.569454154722E+03    0.37294E-02   -0.70083E-03  6048   0.161E-01    0.187E-01
RMM:   4    -0.569453091475E+03    0.10632E-02   -0.21255E-03  6048   0.804E-02    0.544E-02
RMM:   5    -0.569452986269E+03    0.10521E-03   -0.35123E-04  6048   0.307E-02    0.192E-02
RMM:   6    -0.569452955656E+03    0.30612E-04   -0.49982E-05  6048   0.114E-02    0.732E-03
RMM:   7    -0.569452946012E+03    0.96447E-05   -0.15535E-05  5341   0.618E-03    0.397E-03
RMM:   8    -0.569452945087E+03    0.92442E-06   -0.14229E-05  5176   0.733E-03

  12 F= -.56945295E+03 E0= -.56945295E+03  d E =-.216361E-01  mag=     0.0000
       N       E                     dE             d eps       ncg     rms          rms(c)
DAV:   1    -0.569453301180E+03   -0.35517E-03   -0.20661E-01  7008   0.105E+00    0.110E-01
RMM:   2    -0.569453485947E+03   -0.18477E-03   -0.47683E-03  6048   0.148E-01    0.591E-02
RMM:   3    -0.569453390638E+03    0.95310E-04   -0.17433E-04  6048   0.258E-02    0.304E-02
RMM:   4    -0.569453362385E+03    0.28253E-04   -0.59441E-05  6048   0.140E-02    0.855E-03
RMM:   5    -0.569453359400E+03    0.29848E-05   -0.11394E-05  5224   0.745E-03    0.308E-03
RMM:   6    -0.569453361997E+03   -0.25974E-05   -0.95669E-06  4641   0.908E-03    0.140E-03
RMM:   7    -0.569453359335E+03    0.26619E-05   -0.12321E-05  4873   0.102E-02    0.866E-04
RMM:   8    -0.569453356684E+03    0.26515E-05   -0.29914E-06  3947   0.482E-03    0.498E-04
RMM:   9    -0.569453356686E+03   -0.22083E-08   -0.76928E-07  3201   0.195E-03

  13 F= -.56945336E+03 E0= -.56945336E+03  d E =-.220477E-01  mag=     0.0000
       N       E                     dE             d eps       ncg     rms          rms(c)
DAV:   1    -0.569462941790E+03   -0.95851E-02   -0.24843E+00  6080   0.364E+00    0.560E-01
RMM:   2    -0.569461867294E+03    0.10745E-02   -0.67267E-02  6048   0.547E-01    0.214E-01
RMM:   3    -0.569460703122E+03    0.11642E-02   -0.37051E-03  6048   0.115E-01    0.834E-02
RMM:   4    -0.569460446487E+03    0.25663E-03   -0.42316E-04  6048   0.378E-02    0.346E-02
RMM:   5    -0.569460380230E+03    0.66258E-04   -0.16730E-04  6048   0.210E-02    0.130E-02
RMM:   6    -0.569460358587E+03    0.21643E-04   -0.57279E-05  6048   0.126E-02    0.114E-02
RMM:   7    -0.569460353000E+03    0.55869E-05   -0.48566E-05  5996   0.127E-02    0.844E-03
RMM:   8    -0.569460351657E+03    0.13430E-05   -0.22796E-05  5544   0.106E-02    0.330E-03
RMM:   9    -0.569460352129E+03   -0.47241E-06   -0.16366E-05  4873   0.103E-02

  14 F= -.56946035E+03 E0= -.56946035E+03  d E =-.699544E-02  mag=     0.0000
       N       E                     dE             d eps       ncg     rms          rms(c)
DAV:   1    -0.569460373536E+03   -0.21879E-04   -0.74704E-03  7080   0.200E-01    0.315E-02
RMM:   2    -0.569460371489E+03    0.20468E-05   -0.20994E-04  6048   0.308E-02    0.115E-02
RMM:   3    -0.569460368899E+03    0.25895E-05   -0.11787E-05  5645   0.714E-03    0.466E-03
RMM:   4    -0.569460368958E+03   -0.58351E-07   -0.36907E-06  3951   0.503E-03

  15 F= -.56946037E+03 E0= -.56946037E+03  d E =-.701227E-02  mag=     0.0000
       N       E                     dE             d eps       ncg     rms          rms(c)
DAV:   1    -0.569463414610E+03   -0.30457E-02   -0.58346E-01  6136   0.176E+00    0.118E-01
RMM:   2    -0.569464416745E+03   -0.10021E-02   -0.12583E-02  6048   0.237E-01    0.797E-02
RMM:   3    -0.569464276107E+03    0.14064E-03   -0.26610E-04  6048   0.330E-02    0.536E-02
RMM:   4    -0.569464199034E+03    0.77073E-04   -0.36350E-04  6048   0.338E-02    0.137E-02
RMM:   5    -0.569464195385E+03    0.36494E-05   -0.32489E-05  5653   0.134E-02    0.532E-03
RMM:   6    -0.569464192486E+03    0.28987E-05   -0.22419E-05  4964   0.123E-02    0.335E-03
RMM:   7    -0.569464219250E+03   -0.26764E-04   -0.67368E-05  5297   0.213E-02    0.212E-03
RMM:   8    -0.569464188417E+03    0.30832E-04   -0.55193E-05  5203   0.192E-02    0.117E-03
RMM:   9    -0.569464185819E+03    0.25985E-05   -0.44259E-06  4015   0.476E-03    0.215E-03
RMM:  10    -0.569464185623E+03    0.19624E-06   -0.76605E-07  3686   0.188E-03

  16 F= -.56946419E+03 E0= -.56946419E+03  d E =-.381666E-02  mag=     0.0000
       N       E                     dE             d eps       ncg     rms          rms(c)
DAV:   1    -0.569464596007E+03   -0.41019E-03   -0.12953E+00  6064   0.263E+00    0.176E-01
RMM:   2    -0.569466829314E+03   -0.22333E-02   -0.27933E-02  6048   0.352E-01    0.119E-01
RMM:   3    -0.569466521668E+03    0.30765E-03   -0.58875E-04  6048   0.489E-02    0.798E-02
RMM:   4    -0.569466348826E+03    0.17284E-03   -0.79661E-04  6048   0.494E-02    0.204E-02
RMM:   5    -0.569466334639E+03    0.14187E-04   -0.42019E-05  6044   0.112E-02    0.798E-03
RMM:   6    -0.569466331067E+03    0.35720E-05   -0.35820E-06  3893   0.320E-03    0.497E-03
RMM:   7    -0.569466327359E+03    0.37073E-05   -0.67634E-06  4571   0.420E-03    0.262E-03
RMM:   8    -0.569466328389E+03   -0.10301E-05   -0.81006E-06  4754   0.571E-03

  17 F= -.56946633E+03 E0= -.56946633E+03  d E =-.595943E-02  mag=     0.0000
       N       E                     dE             d eps       ncg     rms          rms(c)
DAV:   1    -0.569468917851E+03   -0.25905E-02   -0.76413E-01  6160   0.203E+00    0.242E-01
RMM:   2    -0.569469443556E+03   -0.52570E-03   -0.18499E-02  6048   0.286E-01    0.974E-02
RMM:   3    -0.569469231625E+03    0.21193E-03   -0.66796E-04  6048   0.507E-02    0.454E-02
RMM:   4    -0.569469182773E+03    0.48852E-04   -0.12940E-04  6048   0.216E-02    0.147E-02
RMM:   5    -0.569469183163E+03   -0.39001E-06   -0.29346E-05  6048   0.108E-02    0.528E-03
RMM:   6    -0.569469186354E+03   -0.31912E-05   -0.12188E-05  4772   0.871E-03    0.222E-03
RMM:   7    -0.569469192904E+03   -0.65502E-05   -0.28435E-05  5044   0.133E-02    0.110E-03
RMM:   8    -0.569469182615E+03    0.10289E-04   -0.11439E-05  4673   0.822E-03    0.523E-04
RMM:   9    -0.569469182638E+03   -0.22892E-07   -0.40787E-07  3437   0.152E-03

  18 F= -.56946918E+03 E0= -.56946918E+03  d E =-.285425E-02  mag=     0.0000
       N       E                     dE             d eps       ncg     rms          rms(c)
DAV:   1    -0.569469632990E+03   -0.45037E-03   -0.37754E-01  6272   0.142E+00    0.170E-01
RMM:   2    -0.569469898135E+03   -0.26515E-03   -0.91382E-03  6048   0.201E-01    0.684E-02
RMM:   3    -0.569469794713E+03    0.10342E-03   -0.32948E-04  6048   0.355E-02    0.319E-02
RMM:   4    -0.569469770708E+03    0.24005E-04   -0.62628E-05  6048   0.149E-02    0.103E-02
RMM:   5    -0.569469770954E+03   -0.24580E-06   -0.12377E-05  5624   0.626E-03

  19 F= -.56946977E+03 E0= -.56946977E+03  d E =-.344256E-02  mag=     0.0000
       N       E                     dE             d eps       ncg     rms          rms(c)
DAV:   1    -0.569470948592E+03   -0.11779E-02   -0.63987E-01  6048   0.185E+00    0.139E-01
RMM:   2    -0.569471939414E+03   -0.99082E-03   -0.13774E-02  6048   0.250E-01    0.760E-02
RMM:   3    -0.569471789269E+03    0.15014E-03   -0.31306E-04  6048   0.354E-02    0.465E-02
RMM:   4    -0.569471726249E+03    0.63021E-04   -0.20870E-04  6048   0.258E-02    0.886E-03
RMM:   5    -0.569471726107E+03    0.14162E-06   -0.82517E-06  4880   0.500E-03

  20 F= -.56947173E+03 E0= -.56947173E+03  d E =-.195515E-02  mag=     0.0000
       N       E                     dE             d eps       ncg     rms          rms(c)
DAV:   1    -0.569471332961E+03    0.39329E-03   -0.85369E-01  6048   0.214E+00    0.161E-01
RMM:   2    -0.569472655778E+03   -0.13228E-02   -0.18444E-02  6048   0.289E-01    0.882E-02
RMM:   3    -0.569472453217E+03    0.20256E-03   -0.41982E-04  6048   0.410E-02    0.539E-02
RMM:   4    -0.569472367839E+03    0.85378E-04   -0.27984E-04  6048   0.299E-02    0.104E-02
RMM:   5    -0.569472367399E+03    0.44079E-06   -0.12284E-05  5363   0.641E-03

  21 F= -.56947237E+03 E0= -.56947237E+03  d E =-.259644E-02  mag=     0.0000
       N       E                     dE             d eps       ncg     rms          rms(c)
DAV:   1    -0.569473032577E+03   -0.66474E-03   -0.46408E-01  6120   0.157E+00    0.960E-02
RMM:   2    -0.569473858644E+03   -0.82607E-03   -0.97763E-03  6048   0.210E-01    0.597E-02
RMM:   3    -0.569473771164E+03    0.87480E-04   -0.18898E-04  6048   0.277E-02    0.407E-02
RMM:   4    -0.569473726613E+03    0.44551E-04   -0.19134E-04  6048   0.246E-02    0.782E-03
RMM:   5    -0.569473726108E+03    0.50509E-06   -0.81031E-06  4685   0.735E-03

  22 F= -.56947373E+03 E0= -.56947373E+03  d E =-.135871E-02  mag=     0.0000
       N       E                     dE             d eps       ncg     rms          rms(c)
DAV:   1    -0.569473167125E+03    0.55949E-03   -0.82421E-01  6048   0.209E+00    0.127E-01
RMM:   2    -0.569474630122E+03   -0.14630E-02   -0.17323E-02  6048   0.280E-01    0.796E-02
RMM:   3    -0.569474473079E+03    0.15704E-03   -0.33610E-04  6048   0.372E-02    0.544E-02
RMM:   4    -0.569474395866E+03    0.77213E-04   -0.34761E-04  6048   0.338E-02    0.104E-02
RMM:   5    -0.569474395424E+03    0.44148E-06   -0.32249E-05  5249   0.157E-02    0.552E-03
RMM:   6    -0.569474402431E+03   -0.70063E-05   -0.45099E-05  5202   0.189E-02    0.245E-03
RMM:   7    -0.569474418196E+03   -0.15765E-04   -0.88563E-05  5342   0.265E-02    0.136E-03
RMM:   8    -0.569474387092E+03    0.31103E-04   -0.35996E-05  5019   0.165E-02    0.678E-04
RMM:   9    -0.569474387025E+03    0.67692E-07   -0.83287E-07  3744   0.225E-03

  23 F= -.56947439E+03 E0= -.56947439E+03  d E =-.201963E-02  mag=     0.0000
       N       E                     dE             d eps       ncg     rms          rms(c)
DAV:   1    -0.569475069460E+03   -0.68237E-03   -0.37573E-01  6112   0.141E+00    0.842E-02
RMM:   2    -0.569475792753E+03   -0.72329E-03   -0.81989E-03  6048   0.193E-01    0.556E-02
RMM:   3    -0.569475719728E+03    0.73025E-04   -0.15124E-04  6048   0.250E-02    0.386E-02
RMM:   4    -0.569475678215E+03    0.41513E-04   -0.19064E-04  6048   0.246E-02    0.934E-03
RMM:   5    -0.569475676420E+03    0.17956E-05   -0.57153E-06  4152   0.472E-03

  24 F= -.56947568E+03 E0= -.56947568E+03  d E =-.128939E-02  mag=     0.0000
       N       E                     dE             d eps       ncg     rms          rms(c)
DAV:   1    -0.569475283877E+03    0.39434E-03   -0.60199E-01  6048   0.179E+00    0.107E-01
RMM:   2    -0.569476448504E+03   -0.11646E-02   -0.13165E-02  6048   0.244E-01    0.702E-02
RMM:   3    -0.569476332674E+03    0.11583E-03   -0.24342E-04  6048   0.317E-02    0.486E-02
RMM:   4    -0.569476267315E+03    0.65359E-04   -0.30166E-04  6048   0.309E-02    0.118E-02
RMM:   5    -0.569476264451E+03    0.28637E-05   -0.10156E-05  5170   0.625E-03    0.437E-03
RMM:   6    -0.569476264258E+03    0.19269E-06   -0.17492E-06  3786   0.337E-03

  25 F= -.56947626E+03 E0= -.56947626E+03  d E =-.187723E-02  mag=     0.0000
       N       E                     dE             d eps       ncg     rms          rms(c)
DAV:   1    -0.569477078473E+03   -0.81402E-03   -0.44244E-01  6056   0.153E+00    0.141E-01
RMM:   2    -0.569477650291E+03   -0.57182E-03   -0.96395E-03  6048   0.208E-01    0.645E-02
RMM:   3    -0.569477546201E+03    0.10409E-03   -0.24971E-04  6048   0.318E-02    0.358E-02
RMM:   4    -0.569477511572E+03    0.34629E-04   -0.10801E-04  6048   0.192E-02    0.823E-03
RMM:   5    -0.569477511462E+03    0.11013E-06   -0.15670E-05  5211   0.945E-03

  26 F= -.56947751E+03 E0= -.56947751E+03  d E =-.124720E-02  mag=     0.0000
       N       E                     dE             d eps       ncg     rms          rms(c)
DAV:   1    -0.569476906959E+03    0.60461E-03   -0.14763E+00  6048   0.280E+00    0.258E-01
RMM:   2    -0.569478810564E+03   -0.19036E-02   -0.32261E-02  6048   0.381E-01    0.118E-01
RMM:   3    -0.569478460956E+03    0.34961E-03   -0.83427E-04  6048   0.584E-02    0.658E-02
RMM:   4    -0.569478345770E+03    0.11519E-03   -0.37280E-04  6048   0.362E-02    0.151E-02
RMM:   5    -0.569478345579E+03    0.19052E-06   -0.65960E-05  6048   0.202E-02    0.727E-03
RMM:   6    -0.569478356928E+03   -0.11349E-04   -0.75895E-05  5341   0.235E-02    0.342E-03
RMM:   7    -0.569478381015E+03   -0.24087E-04   -0.14749E-04  5508   0.326E-02    0.206E-03
RMM:   8    -0.569478330980E+03    0.50035E-04   -0.57572E-05  5222   0.199E-02    0.110E-03
RMM:   9    -0.569478331855E+03   -0.87529E-06   -0.37707E-06  3973   0.466E-03

  27 F= -.56947833E+03 E0= -.56947833E+03  d E =-.206760E-02  mag=     0.0000
       N       E                     dE             d eps       ncg     rms          rms(c)
DAV:   1    -0.569478845114E+03   -0.51413E-03   -0.76779E-01  6056   0.202E+00    0.187E-01
RMM:   2    -0.569479832819E+03   -0.98770E-03   -0.16707E-02  6048   0.274E-01    0.815E-02
RMM:   3    -0.569479668517E+03    0.16430E-03   -0.41831E-04  6048   0.412E-02    0.447E-02
RMM:   4    -0.569479614137E+03    0.54380E-04   -0.16032E-04  6048   0.233E-02    0.971E-03
RMM:   5    -0.569479614753E+03   -0.61562E-06   -0.10998E-05  5270   0.581E-03

  28 F= -.56947961E+03 E0= -.56947961E+03  d E =-.128290E-02  mag=     0.0000
       N       E                     dE             d eps       ncg     rms          rms(c)
DAV:   1    -0.569478623439E+03    0.99070E-03   -0.16743E+00  6048   0.298E+00    0.278E-01
RMM:   2    -0.569480784173E+03   -0.21607E-02   -0.36652E-02  6048   0.406E-01    0.121E-01
RMM:   3    -0.569480423911E+03    0.36026E-03   -0.91375E-04  6048   0.609E-02    0.663E-02
RMM:   4    -0.569480303762E+03    0.12015E-03   -0.35747E-04  6048   0.348E-02    0.145E-02
RMM:   5    -0.569480304563E+03   -0.80143E-06   -0.25218E-05  6046   0.893E-03    0.751E-03
RMM:   6    -0.569480305302E+03   -0.73934E-06   -0.44449E-06  3966   0.491E-03

  29 F= -.56948031E+03 E0= -.56948031E+03  d E =-.197345E-02  mag=     0.0000
       N       E                     dE             d eps       ncg     rms          rms(c)
DAV:   1    -0.569480832479E+03   -0.52792E-03   -0.33822E-01  6120   0.134E+00    0.999E-02
RMM:   2    -0.569481385062E+03   -0.55258E-03   -0.70889E-03  6048   0.179E-01    0.516E-02
RMM:   3    -0.569481319692E+03    0.65371E-04   -0.14829E-04  6048   0.253E-02    0.316E-02
RMM:   4    -0.569481297848E+03    0.21844E-04   -0.10327E-04  6048   0.201E-02    0.608E-03
RMM:   5    -0.569481299482E+03   -0.16347E-05   -0.23397E-05  4981   0.131E-02    0.331E-03
RMM:   6    -0.569481304507E+03   -0.50245E-05   -0.35528E-05  5123   0.159E-02    0.138E-03
RMM:   7    -0.569481304049E+03    0.45811E-06   -0.44613E-05  5143   0.176E-02    0.759E-04
RMM:   8    -0.569481293896E+03    0.10153E-04   -0.11122E-05  4576   0.849E-03    0.265E-04
RMM:   9    -0.569481293949E+03   -0.52753E-07   -0.15682E-07  3139   0.119E-03

  30 F= -.56948129E+03 E0= -.56948129E+03  d E =-.988646E-03  mag=     0.0000
       N       E                     dE             d eps       ncg     rms          rms(c)
DAV:   1    -0.569479156246E+03    0.21377E-02   -0.30421E+00  6048   0.401E+00    0.302E-01
RMM:   2    -0.569484135911E+03   -0.49797E-02   -0.63933E-02  6048   0.537E-01    0.154E-01
RMM:   3    -0.569483558247E+03    0.57766E-03   -0.13101E-03  6048   0.737E-02    0.948E-02
RMM:   4    -0.569483324735E+03    0.23351E-03   -0.87502E-04  6048   0.540E-02    0.186E-02
RMM:   5    -0.569483325079E+03   -0.34405E-06   -0.24064E-05  6062   0.880E-03    0.989E-03
RMM:   6    -0.569483325064E+03    0.14277E-07   -0.45795E-06  3939   0.401E-03

  31 F= -.56948333E+03 E0= -.56948333E+03  d E =-.301976E-02  mag=     0.0000
       N       E                     dE             d eps       ncg     rms          rms(c)
DAV:   1    -0.569466409112E+03    0.16916E-01   -0.12166E+01  6048   0.802E+00    0.611E-01
RMM:   2    -0.569486378133E+03   -0.19969E-01   -0.25814E-01  6048   0.108E+00    0.308E-01
RMM:   3    -0.569484064629E+03    0.23135E-02   -0.52519E-03  6048   0.148E-01    0.190E-01
RMM:   4    -0.569483126070E+03    0.93856E-03   -0.36137E-03  6048   0.110E-01    0.383E-02
RMM:   5    -0.569483122961E+03    0.31084E-05   -0.98996E-05  6058   0.179E-02    0.201E-02
RMM:   6    -0.569483121506E+03    0.14556E-05   -0.22358E-05  5948   0.846E-03    0.838E-03
RMM:   7    -0.569483121833E+03   -0.32749E-06   -0.96098E-06  5335   0.633E-03

  32 F= -.56948312E+03 E0= -.56948312E+03  d E =-.281653E-02  mag=     0.0000
       N       E                     dE             d eps       ncg     rms          rms(c)
DAV:   1    -0.569479181419E+03    0.39401E-02   -0.34792E+00  6048   0.428E+00    0.319E-01
RMM:   2    -0.569484857900E+03   -0.56765E-02   -0.72197E-02  6048   0.571E-01    0.165E-01
RMM:   3    -0.569484198204E+03    0.65970E-03   -0.15086E-03  6048   0.790E-02    0.100E-01
RMM:   4    -0.569483943242E+03    0.25496E-03   -0.93210E-04  6048   0.560E-02    0.192E-02
RMM:   5    -0.569483943720E+03   -0.47793E-06   -0.32631E-05  6048   0.129E-02    0.102E-02
RMM:   6    -0.569483944593E+03   -0.87331E-06   -0.14520E-05  4924   0.114E-02

  33 F= -.56948394E+03 E0= -.56948394E+03  d E =-.363929E-02  mag=     0.0000
       N       E                     dE             d eps       ncg     rms          rms(c)
DAV:   1    -0.569483214911E+03    0.72881E-03   -0.14303E+00  6048   0.274E+00    0.184E-01
RMM:   2    -0.569485770853E+03   -0.25559E-02   -0.30089E-02  6048   0.369E-01    0.101E-01
RMM:   3    -0.569485523971E+03    0.24688E-03   -0.57349E-04  6048   0.504E-02    0.658E-02
RMM:   4    -0.569485430872E+03    0.93100E-04   -0.51904E-04  6048   0.453E-02    0.149E-02
RMM:   5    -0.569485429609E+03    0.12625E-05   -0.92589E-05  5868   0.313E-02    0.748E-03
RMM:   6    -0.569485429319E+03    0.28970E-06   -0.91670E-05  5494   0.319E-02    0.394E-03
RMM:   7    -0.569485427814E+03    0.15056E-05   -0.90986E-05  5456   0.319E-02    0.212E-03
RMM:   8    -0.569485396998E+03    0.30816E-04   -0.26826E-05  5031   0.170E-02    0.106E-03
RMM:   9    -0.569485398967E+03   -0.19683E-05   -0.47960E-06  4091   0.566E-03

  34 F= -.56948540E+03 E0= -.56948540E+03  d E =-.145437E-02  mag=     0.0000
       N       E                     dE             d eps       ncg     rms          rms(c)
DAV:   1    -0.569484094918E+03    0.13021E-02   -0.10303E+00  6048   0.233E+00    0.156E-01
RMM:   2    -0.569485938790E+03   -0.18439E-02   -0.21618E-02  6048   0.312E-01    0.854E-02
RMM:   3    -0.569485765414E+03    0.17338E-03   -0.40763E-04  6048   0.413E-02    0.558E-02
RMM:   4    -0.569485681307E+03    0.84107E-04   -0.35234E-04  6048   0.342E-02    0.125E-02
RMM:   5    -0.569485678843E+03    0.24645E-05   -0.11804E-05  4926   0.746E-03    0.613E-03
RMM:   6    -0.569485678607E+03    0.23562E-06   -0.73772E-06  4404   0.693E-03

  35 F= -.56948568E+03 E0= -.56948568E+03  d E =-.173401E-02  mag=     0.0000
       N       E                     dE             d eps       ncg     rms          rms(c)
DAV:   1    -0.569484596889E+03    0.10820E-02   -0.18371E+00  6048   0.311E+00    0.222E-01
RMM:   2    -0.569487703467E+03   -0.31066E-02   -0.38336E-02  6048   0.416E-01    0.108E-01
RMM:   3    -0.569487422862E+03    0.28061E-03   -0.75949E-04  6048   0.571E-02    0.676E-02
RMM:   4    -0.569487329644E+03    0.93219E-04   -0.51129E-04  6048   0.446E-02    0.131E-02
RMM:   5    -0.569487329243E+03    0.40083E-06   -0.88451E-05  5604   0.255E-02    0.797E-03
RMM:   6    -0.569487360253E+03   -0.31010E-04   -0.13982E-04  5526   0.316E-02    0.295E-03
RMM:   7    -0.569487356108E+03    0.41452E-05   -0.19646E-04  5538   0.373E-02    0.158E-03
RMM:   8    -0.569487311347E+03    0.44761E-04   -0.46837E-05  5146   0.178E-02    0.615E-04
RMM:   9    -0.569487311461E+03   -0.11391E-06   -0.24503E-07  3737   0.152E-03

  36 F= -.56948731E+03 E0= -.56948731E+03  d E =-.163285E-02  mag=     0.0000
       N       E                     dE             d eps       ncg     rms          rms(c)
DAV:   1    -0.569464732116E+03    0.22579E-01   -0.16526E+01  6048   0.933E+00    0.677E-01
RMM:   2    -0.569492877742E+03   -0.28146E-01   -0.34959E-01  6048   0.125E+00    0.322E-01
RMM:   3    -0.569490367957E+03    0.25098E-02   -0.67840E-03  6048   0.168E-01    0.204E-01
RMM:   4    -0.569489339033E+03    0.10289E-02   -0.45761E-03  6048   0.124E-01    0.424E-02
RMM:   5    -0.569489342750E+03   -0.37172E-05   -0.99858E-05  6058   0.178E-02    0.246E-02
RMM:   6    -0.569489344656E+03   -0.19055E-05   -0.42363E-05  6046   0.116E-02    0.982E-03
RMM:   7    -0.569489345022E+03   -0.36631E-06   -0.18984E-05  5609   0.839E-03

  37 F= -.56948935E+03 E0= -.56948935E+03  d E =-.366641E-02  mag=     0.0000
       N       E                     dE             d eps       ncg     rms          rms(c)
DAV:   1    -0.569488933688E+03    0.41097E-03   -0.21757E+00  6048   0.339E+00    0.311E-01
RMM:   2    -0.569491872223E+03   -0.29385E-02   -0.47513E-02  6048   0.461E-01    0.128E-01
RMM:   3    -0.569491482884E+03    0.38934E-03   -0.11408E-03  6048   0.684E-02    0.701E-02
RMM:   4    -0.569491358469E+03    0.12441E-03   -0.40462E-04  6048   0.377E-02    0.151E-02
RMM:   5    -0.569491362544E+03   -0.40746E-05   -0.27951E-05  6048   0.102E-02    0.819E-03
RMM:   6    -0.569491365373E+03   -0.28293E-05   -0.77586E-06  4618   0.767E-03    0.253E-03
RMM:   7    -0.569491369753E+03   -0.43800E-05   -0.14983E-05  4864   0.117E-02    0.787E-04
RMM:   8    -0.569491363995E+03    0.57583E-05   -0.76349E-06  4403   0.818E-03    0.466E-04
RMM:   9    -0.569491363965E+03    0.29746E-07   -0.43426E-07  3037   0.168E-03

  38 F= -.56949136E+03 E0= -.56949136E+03  d E =-.201894E-02  mag=     0.0000
       N       E                     dE             d eps       ncg     rms          rms(c)
DAV:   1    -0.569487024404E+03    0.43396E-02   -0.50189E+00  6048   0.515E+00    0.476E-01
RMM:   2    -0.569493755010E+03   -0.67306E-02   -0.10977E-01  6048   0.700E-01    0.193E-01
RMM:   3    -0.569492865615E+03    0.88939E-03   -0.26246E-03  6048   0.104E-01    0.106E-01
RMM:   4    -0.569492579236E+03    0.28638E-03   -0.93472E-04  6048   0.571E-02    0.227E-02
RMM:   5    -0.569492587384E+03   -0.81475E-05   -0.58355E-05  6048   0.133E-02    0.124E-02
RMM:   6    -0.569492589555E+03   -0.21712E-05   -0.77004E-06  4765   0.522E-03    0.396E-03
RMM:   7    -0.569492590632E+03   -0.10771E-05   -0.22205E-06  3779   0.367E-03

  39 F= -.56949259E+03 E0= -.56949259E+03  d E =-.324561E-02  mag=     0.0000
       N       E                     dE             d eps       ncg     rms          rms(c)
DAV:   1    -0.569492927448E+03   -0.33789E-03   -0.81018E-01  6128   0.207E+00    0.176E-01
RMM:   2    -0.569494133885E+03   -0.12064E-02   -0.17567E-02  6048   0.280E-01    0.762E-02
RMM:   3    -0.569493993243E+03    0.14064E-03   -0.39479E-04  6048   0.404E-02    0.441E-02
RMM:   4    -0.569493947298E+03    0.45944E-04   -0.18249E-04  6048   0.251E-02    0.893E-03
RMM:   5    -0.569493949239E+03   -0.19407E-05   -0.13670E-05  4975   0.843E-03

  40 F= -.56949395E+03 E0= -.56949395E+03  d E =-.135861E-02  mag=     0.0000
       N       E                     dE             d eps       ncg     rms          rms(c)
DAV:   1    -0.569491093275E+03    0.28540E-02   -0.30145E+00  6048   0.399E+00    0.341E-01
RMM:   2    -0.569495615331E+03   -0.45221E-02   -0.65850E-02  6048   0.543E-01    0.147E-01
RMM:   3    -0.569495091726E+03    0.52360E-03   -0.14644E-03  6048   0.779E-02    0.856E-02
RMM:   4    -0.569494920503E+03    0.17122E-03   -0.70098E-04  6048   0.494E-02    0.173E-02
RMM:   5    -0.569494926722E+03   -0.62198E-05   -0.54544E-05  6048   0.172E-02    0.968E-03
RMM:   6    -0.569494935413E+03   -0.86909E-05   -0.52351E-05  5295   0.180E-02    0.368E-03
RMM:   7    -0.569494973381E+03   -0.37968E-04   -0.13516E-04  5489   0.290E-02    0.158E-03
RMM:   8    -0.569494920999E+03    0.52382E-04   -0.58648E-05  5201   0.188E-02    0.612E-04
RMM:   9    -0.569494921130E+03   -0.13104E-06   -0.22631E-07  3712   0.131E-03

  41 F= -.56949492E+03 E0= -.56949492E+03  d E =-.233050E-02  mag=     0.0000
       N       E                     dE             d eps       ncg     rms          rms(c)
DAV:   1    -0.569495089720E+03   -0.16872E-03   -0.56899E-01  6112   0.173E+00    0.124E-01
RMM:   2    -0.569496055272E+03   -0.96555E-03   -0.11974E-02  6048   0.232E-01    0.611E-02
RMM:   3    -0.569495962131E+03    0.93141E-04   -0.23725E-04  6048   0.314E-02    0.386E-02
RMM:   4    -0.569495922476E+03    0.39655E-04   -0.16827E-04  6048   0.237E-02    0.805E-03
RMM:   5    -0.569495922357E+03    0.11858E-06   -0.34386E-06  3822   0.352E-03

  42 F= -.56949592E+03 E0= -.56949592E+03  d E =-.100123E-02  mag=     0.0000
       N       E                     dE             d eps       ncg     rms          rms(c)
DAV:   1    -0.569490461821E+03    0.54607E-02   -0.45733E+00  6048   0.492E+00    0.354E-01
RMM:   2    -0.569498263901E+03   -0.78021E-02   -0.97183E-02  6048   0.662E-01    0.174E-01
RMM:   3    -0.569497515138E+03    0.74876E-03   -0.19153E-03  6048   0.893E-02    0.110E-01
RMM:   4    -0.569497196497E+03    0.31864E-03   -0.13999E-03  6048   0.685E-02    0.238E-02
RMM:   5    -0.569497192616E+03    0.38814E-05   -0.34253E-05  6048   0.102E-02    0.133E-02
RMM:   6    -0.569497190596E+03    0.20197E-05   -0.12186E-05  5322   0.604E-03    0.577E-03
RMM:   7    -0.569497189904E+03    0.69182E-06   -0.73170E-06  4700   0.597E-03

  43 F= -.56949719E+03 E0= -.56949719E+03  d E =-.226877E-02  mag=     0.0000
       N       E                     dE             d eps       ncg     rms          rms(c)
DAV:   1    -0.569497538793E+03   -0.34820E-03   -0.42506E-01  6224   0.150E+00    0.100E-01
RMM:   2    -0.569498310964E+03   -0.77217E-03   -0.91315E-03  6048   0.204E-01    0.549E-02
RMM:   3    -0.569498234934E+03    0.76030E-04   -0.17572E-04  6048   0.278E-02    0.359E-02
RMM:   4    -0.569498210037E+03    0.24897E-04   -0.16231E-04  6048   0.253E-02    0.759E-03
RMM:   5    -0.569498208967E+03    0.10696E-05   -0.34999E-05  5078   0.163E-02    0.407E-03
RMM:   6    -0.569498216000E+03   -0.70329E-05   -0.46788E-05  5214   0.185E-02    0.176E-03
RMM:   7    -0.569498214650E+03    0.13508E-05   -0.57572E-05  5203   0.203E-02    0.951E-04
RMM:   8    -0.569498200822E+03    0.13828E-04   -0.14406E-05  4679   0.980E-03    0.421E-04
RMM:   9    -0.569498200883E+03   -0.61347E-07   -0.21465E-07  3351   0.127E-03

  44 F= -.56949820E+03 E0= -.56949820E+03  d E =-.101098E-02  mag=     0.0000
       N       E                     dE             d eps       ncg     rms          rms(c)
DAV:   1    -0.569496305828E+03    0.18950E-02   -0.17415E+00  6048   0.303E+00    0.205E-01
RMM:   2    -0.569499468625E+03   -0.31628E-02   -0.37341E-02  6048   0.411E-01    0.110E-01
RMM:   3    -0.569499170117E+03    0.29851E-03   -0.71034E-04  6048   0.544E-02    0.718E-02
RMM:   4    -0.569499035957E+03    0.13416E-03   -0.59972E-04  6048   0.447E-02    0.155E-02
RMM:   5    -0.569499033725E+03    0.22319E-05   -0.11929E-05  5050   0.625E-03    0.818E-03
RMM:   6    -0.569499033350E+03    0.37510E-06   -0.39589E-06  3790   0.371E-03

  45 F= -.56949903E+03 E0= -.56949903E+03  d E =-.184345E-02  mag=     0.0000
       N       E                     dE             d eps       ncg     rms          rms(c)
DAV:   1    -0.569499445078E+03   -0.41135E-03   -0.34920E-01  6080   0.136E+00    0.989E-02
RMM:   2    -0.569500045156E+03   -0.60008E-03   -0.74010E-03  6048   0.182E-01    0.489E-02
RMM:   3    -0.569499987886E+03    0.57270E-04   -0.14706E-04  6048   0.248E-02    0.307E-02
RMM:   4    -0.569499965430E+03    0.22456E-04   -0.96427E-05  6048   0.179E-02    0.605E-03
RMM:   5    -0.569499965869E+03   -0.43953E-06   -0.22095E-06  3744   0.332E-03

  46 F= -.56949997E+03 E0= -.56949997E+03  d E =-.932519E-03  mag=     0.0000
       N       E                     dE             d eps       ncg     rms          rms(c)
DAV:   1    -0.569497003901E+03    0.29615E-02   -0.31444E+00  6048   0.408E+00    0.299E-01
RMM:   2    -0.569502422217E+03   -0.54183E-02   -0.67013E-02  6048   0.549E-01    0.147E-01
RMM:   3    -0.569501902864E+03    0.51935E-03   -0.13196E-03  6048   0.744E-02    0.927E-02
RMM:   4    -0.569501699139E+03    0.20372E-03   -0.89815E-04  6048   0.547E-02    0.186E-02
RMM:   5    -0.569501700950E+03   -0.18108E-05   -0.22492E-05  5986   0.923E-03    0.100E-02
RMM:   6    -0.569501701637E+03   -0.68714E-06   -0.60564E-06  4381   0.566E-03

  47 F= -.56950170E+03 E0= -.56950170E+03  d E =-.266829E-02  mag=     0.0000
       N       E                     dE             d eps       ncg     rms          rms(c)
DAV:   1    -0.569481493231E+03    0.20208E-01   -0.12569E+01  6048   0.815E+00    0.605E-01
RMM:   2    -0.569503140723E+03   -0.21647E-01   -0.27008E-01  6048   0.110E+00    0.294E-01
RMM:   3    -0.569501076018E+03    0.20647E-02   -0.52850E-03  6048   0.149E-01    0.185E-01
RMM:   4    -0.569500264097E+03    0.81192E-03   -0.37122E-03  6048   0.111E-01    0.384E-02
RMM:   5    -0.569500265166E+03   -0.10695E-05   -0.10558E-04  6048   0.229E-02    0.204E-02
RMM:   6    -0.569500267408E+03   -0.22421E-05   -0.44406E-05  5922   0.175E-02    0.860E-03
RMM:   7    -0.569500306119E+03   -0.38711E-04   -0.81472E-05  5616   0.280E-02    0.366E-03
RMM:   8    -0.569500263529E+03    0.42590E-04   -0.56807E-05  5226   0.236E-02    0.172E-03
RMM:   9    -0.569500262288E+03    0.12414E-05   -0.45248E-06  4057   0.582E-03

  48 F= -.56950026E+03 E0= -.56950026E+03  d E =-.122894E-02  mag=     0.0000
       N       E                     dE             d eps       ncg     rms          rms(c)
DAV:   1    -0.569492106899E+03    0.81566E-02   -0.66347E+00  6048   0.592E+00    0.425E-01
RMM:   2    -0.569503488095E+03   -0.11381E-01   -0.13913E-01  6048   0.792E-01    0.215E-01
RMM:   3    -0.569502376227E+03    0.11119E-02   -0.27977E-03  6048   0.108E-01    0.134E-01
RMM:   4    -0.569501951974E+03    0.42425E-03   -0.17546E-03  6048   0.763E-02    0.256E-02
RMM:   5    -0.569501956211E+03   -0.42374E-05   -0.45365E-05  6048   0.122E-02    0.139E-02
RMM:   6    -0.569501955370E+03    0.84073E-06   -0.92816E-06  5037   0.600E-03

  49 F= -.56950196E+03 E0= -.56950196E+03  d E =-.292202E-02  mag=     0.0000
       N       E                     dE             d eps       ncg     rms          rms(c)
DAV:   1    -0.569502136304E+03   -0.18009E-03   -0.78654E-01  6048   0.204E+00    0.178E-01
RMM:   2    -0.569503301931E+03   -0.11656E-02   -0.17107E-02  6048   0.277E-01    0.792E-02
RMM:   3    -0.569503155205E+03    0.14673E-03   -0.40079E-04  6048   0.409E-02    0.445E-02
RMM:   4    -0.569503108255E+03    0.46950E-04   -0.16267E-04  6048   0.243E-02    0.100E-02
RMM:   5    -0.569503110049E+03   -0.17941E-05   -0.19780E-05  5410   0.105E-02

  50 F= -.56950311E+03 E0= -.56950311E+03  d E =-.115468E-02  mag=     0.0000
       N       E                     dE             d eps       ncg     rms          rms(c)
DAV:   1    -0.569500753133E+03    0.23551E-02   -0.25408E+00  6048   0.367E+00    0.322E-01
RMM:   2    -0.569504533621E+03   -0.37805E-02   -0.55716E-02  6048   0.500E-01    0.142E-01
RMM:   3    -0.569504064613E+03    0.46901E-03   -0.13002E-03  6048   0.737E-02    0.802E-02
RMM:   4    -0.569503916260E+03    0.14835E-03   -0.53775E-04  6048   0.445E-02    0.181E-02
RMM:   5    -0.569503922663E+03   -0.64028E-05   -0.77460E-05  6048   0.213E-02    0.918E-03
RMM:   6    -0.569503933931E+03   -0.11268E-04   -0.86119E-05  5376   0.239E-02    0.401E-03
RMM:   7    -0.569503973660E+03   -0.39730E-04   -0.18168E-04  5608   0.345E-02    0.208E-03
RMM:   8    -0.569503907612E+03    0.66048E-04   -0.72648E-05  5265   0.216E-02    0.995E-04
RMM:   9    -0.569503907631E+03   -0.18739E-07   -0.11591E-06  3745   0.247E-03

  51 F= -.56950391E+03 E0= -.56950391E+03  d E =-.195226E-02  mag=     0.0000
       N       E                     dE             d eps       ncg     rms          rms(c)
DAV:   1    -0.569503447223E+03    0.46039E-03   -0.12168E+00  6048   0.254E+00    0.182E-01
RMM:   2    -0.569505549095E+03   -0.21019E-02   -0.25660E-02  6048   0.340E-01    0.894E-02
RMM:   3    -0.569505356038E+03    0.19306E-03   -0.50565E-04  6048   0.459E-02    0.563E-02
RMM:   4    -0.569505279897E+03    0.76142E-04   -0.33742E-04  6048   0.335E-02    0.111E-02
RMM:   5    -0.569505280850E+03   -0.95351E-06   -0.62236E-06  4218   0.471E-03

  52 F= -.56950528E+03 E0= -.56950528E+03  d E =-.137322E-02  mag=     0.0000
       N       E                     dE             d eps       ncg     rms          rms(c)
DAV:   1    -0.569500229751E+03    0.50501E-02   -0.40211E+00  6048   0.462E+00    0.334E-01
RMM:   2    -0.569507196260E+03   -0.69665E-02   -0.85337E-02  6048   0.620E-01    0.163E-01
RMM:   3    -0.569506554556E+03    0.64170E-03   -0.16751E-03  6048   0.836E-02    0.103E-01
RMM:   4    -0.569506301383E+03    0.25317E-03   -0.11470E-03  6048   0.617E-02    0.207E-02
RMM:   5    -0.569506303368E+03   -0.19860E-05   -0.23263E-05  5990   0.870E-03    0.121E-02
RMM:   6    -0.569506304083E+03   -0.71438E-06   -0.99249E-06  5296   0.579E-03

  53 F= -.56950630E+03 E0= -.56950630E+03  d E =-.239645E-02  mag=     0.0000
       N       E                     dE             d eps       ncg     rms          rms(c)
DAV:   1    -0.569505879236E+03    0.42413E-03   -0.10836E+00  6048   0.239E+00    0.151E-01
RMM:   2    -0.569507890776E+03   -0.20115E-02   -0.22499E-02  6048   0.318E-01    0.825E-02
RMM:   3    -0.569507737750E+03    0.15303E-03   -0.41331E-04  6048   0.415E-02    0.555E-02
RMM:   4    -0.569507670948E+03    0.66801E-04   -0.38085E-04  6048   0.358E-02    0.141E-02
RMM:   5    -0.569507668175E+03    0.27739E-05   -0.87198E-06  4925   0.593E-03    0.624E-03
RMM:   6    -0.569507668560E+03   -0.38551E-06   -0.22162E-06  3744   0.370E-03

  54 F= -.56950767E+03 E0= -.56950767E+03  d E =-.136448E-02  mag=     0.0000
       N       E                     dE             d eps       ncg     rms          rms(c)
DAV:   1    -0.569505167255E+03    0.25009E-02   -0.21163E+00  6048   0.334E+00    0.212E-01
RMM:   2    -0.569509112791E+03   -0.39455E-02   -0.44166E-02  6048   0.446E-01    0.116E-01
RMM:   3    -0.569508809708E+03    0.30308E-03   -0.81006E-04  6048   0.582E-02    0.781E-02
RMM:   4    -0.569508679209E+03    0.13050E-03   -0.76087E-04  6048   0.508E-02    0.201E-02
RMM:   5    -0.569508672842E+03    0.63669E-05   -0.23330E-05  5604   0.115E-02    0.873E-03
RMM:   6    -0.569508673946E+03   -0.11033E-05   -0.10072E-05  4869   0.915E-03

  55 F= -.56950867E+03 E0= -.56950867E+03  d E =-.236986E-02  mag=     0.0000
       N       E                     dE             d eps       ncg     rms          rms(c)
DAV:   1    -0.569508165474E+03    0.50737E-03   -0.37685E-01  6176   0.141E+00    0.893E-02
RMM:   2    -0.569508861855E+03   -0.69638E-03   -0.78869E-03  6048   0.189E-01    0.488E-02
RMM:   3    -0.569508803341E+03    0.58515E-04   -0.15010E-04  6048   0.266E-02    0.328E-02
RMM:   4    -0.569508802411E+03    0.92958E-06   -0.15661E-04  6048   0.272E-02    0.828E-03
RMM:   5    -0.569508791346E+03    0.11065E-04   -0.54296E-05  5315   0.230E-02    0.436E-03
RMM:   6    -0.569508785172E+03    0.61743E-05   -0.31220E-05  5141   0.170E-02    0.203E-03
RMM:   7    -0.569508778921E+03    0.62512E-05   -0.10786E-05  4737   0.980E-03    0.911E-04
RMM:   8    -0.569508777953E+03    0.96788E-06   -0.15646E-06  3763   0.338E-03

  56 F= -.56950878E+03 E0= -.56950878E+03  d E =-.247387E-02  mag=     0.0000
       N       E                     dE             d eps       ncg     rms          rms(c)
DAV:   1    -0.569507623116E+03    0.11558E-02   -0.17568E+00  6048   0.305E+00    0.210E-01
RMM:   2    -0.569510792912E+03   -0.31698E-02   -0.36998E-02  6048   0.408E-01    0.107E-01
RMM:   3    -0.569510528818E+03    0.26409E-03   -0.70889E-04  6048   0.544E-02    0.687E-02
RMM:   4    -0.569510423873E+03    0.10495E-03   -0.52607E-04  6048   0.424E-02    0.158E-02
RMM:   5    -0.569510422681E+03    0.11914E-05   -0.12058E-05  5060   0.688E-03

  57 F= -.56951042E+03 E0= -.56951042E+03  d E =-.164473E-02  mag=     0.0000
       N       E                     dE             d eps       ncg     rms          rms(c)
DAV:   1    -0.569487224237E+03    0.23200E-01   -0.15810E+01  6048   0.916E+00    0.640E-01
RMM:   2    -0.569515977422E+03   -0.28753E-01   -0.33778E-01  6048   0.123E+00    0.322E-01
RMM:   3    -0.569513613502E+03    0.23639E-02   -0.64317E-03  6048   0.164E-01    0.207E-01
RMM:   4    -0.569512673267E+03    0.94024E-03   -0.49744E-03  6048   0.130E-01    0.507E-02
RMM:   5    -0.569512648811E+03    0.24456E-04   -0.12420E-04  6048   0.210E-02    0.238E-02
RMM:   6    -0.569512648329E+03    0.48146E-06   -0.27672E-05  5955   0.101E-02    0.107E-02
RMM:   7    -0.569512653622E+03   -0.52924E-05   -0.22166E-05  5523   0.113E-02    0.466E-03
RMM:   8    -0.569512656327E+03   -0.27051E-05   -0.32023E-05  5165   0.146E-02    0.243E-03
RMM:   9    -0.569512653502E+03    0.28253E-05   -0.29519E-05  4992   0.140E-02    0.305E-03
RMM:  10    -0.569512647615E+03    0.58868E-05   -0.72105E-06  4381   0.665E-03    0.924E-04
RMM:  11    -0.569512647495E+03    0.11960E-06   -0.65759E-07  3698   0.159E-03

  58 F= -.56951265E+03 E0= -.56951265E+03  d E =-.386954E-02  mag=     0.0000
       N       E                     dE             d eps       ncg     rms          rms(c)
DAV:   1    -0.569512542163E+03    0.10545E-03   -0.96214E-01  6064   0.226E+00    0.173E-01
RMM:   2    -0.569514156980E+03   -0.16148E-02   -0.20465E-02  6048   0.303E-01    0.797E-02
RMM:   3    -0.569514009792E+03    0.14719E-03   -0.41871E-04  6048   0.417E-02    0.486E-02
RMM:   4    -0.569513957741E+03    0.52051E-04   -0.22969E-04  6048   0.280E-02    0.978E-03
RMM:   5    -0.569513959244E+03   -0.15031E-05   -0.56179E-06  4110   0.448E-03

  59 F= -.56951396E+03 E0= -.56951396E+03  d E =-.131175E-02  mag=     0.0000
       N       E                     dE             d eps       ncg     rms          rms(c)
DAV:   1    -0.569503556342E+03    0.10401E-01   -0.86606E+00  6048   0.677E+00    0.525E-01
RMM:   2    -0.569518169574E+03   -0.14613E-01   -0.18629E-01  6048   0.913E-01    0.239E-01
RMM:   3    -0.569516854247E+03    0.13153E-02   -0.37668E-03  6048   0.125E-01    0.147E-01
RMM:   4    -0.569516385276E+03    0.46897E-03   -0.21734E-03  6048   0.862E-02    0.304E-02
RMM:   5    -0.569516393516E+03   -0.82404E-05   -0.56227E-05  6050   0.135E-02    0.173E-02
RMM:   6    -0.569516394964E+03   -0.14479E-05   -0.16920E-05  5501   0.744E-03

  60 F= -.56951639E+03 E0= -.56951639E+03  d E =-.374747E-02  mag=     0.0000
       N       E                     dE             d eps       ncg     rms          rms(c)
DAV:   1    -0.569463405228E+03    0.52988E-01   -0.34611E+01  6048   0.135E+01    0.107E+00
RMM:   2    -0.569521925238E+03   -0.58520E-01   -0.75723E-01  6048   0.184E+00    0.475E-01
RMM:   3    -0.569516727686E+03    0.51976E-02   -0.15111E-02  6048   0.252E-01    0.294E-01
RMM:   4    -0.569514833334E+03    0.18944E-02   -0.92877E-03  6048   0.178E-01    0.647E-02
RMM:   5    -0.569514841683E+03   -0.83487E-05   -0.23940E-04  6048   0.285E-02    0.355E-02
RMM:   6    -0.569514844475E+03   -0.27927E-05   -0.87810E-05  6048   0.172E-02    0.151E-02
RMM:   7    -0.569514852735E+03   -0.82595E-05   -0.46854E-05  6042   0.162E-02    0.688E-03
RMM:   8    -0.569514848737E+03    0.39983E-05   -0.21632E-05  5190   0.141E-02    0.185E-03
RMM:   9    -0.569514849373E+03   -0.63673E-06   -0.15650E-05  4855   0.120E-02

  61 F= -.56951485E+03 E0= -.56951485E+03  d E =-.220188E-02  mag=     0.0000
       N       E                     dE             d eps       ncg     rms          rms(c)
DAV:   1    -0.569492636394E+03    0.22212E-01   -0.16516E+01  6048   0.935E+00    0.699E-01
RMM:   2    -0.569520307874E+03   -0.27671E-01   -0.34505E-01  6048   0.125E+00    0.335E-01
RMM:   3    -0.569517709708E+03    0.25982E-02   -0.73015E-03  6048   0.174E-01    0.200E-01
RMM:   4    -0.569516836602E+03    0.87311E-03   -0.35668E-03  6048   0.111E-01    0.397E-02
RMM:   5    -0.569516860036E+03   -0.23434E-04   -0.11767E-04  6048   0.194E-02    0.223E-02
RMM:   6    -0.569516858951E+03    0.10853E-05   -0.22079E-05  5752   0.921E-03    0.643E-03
RMM:   7    -0.569516859708E+03   -0.75705E-06   -0.74219E-06  4446   0.716E-03

  62 F= -.56951686E+03 E0= -.56951686E+03  d E =-.421221E-02  mag=     0.0000
       N       E                     dE             d eps       ncg     rms          rms(c)
DAV:   1    -0.569516401292E+03    0.45766E-03   -0.12208E+00  6048   0.254E+00    0.208E-01
RMM:   2    -0.569518326711E+03   -0.19254E-02   -0.26177E-02  6048   0.343E-01    0.904E-02
RMM:   3    -0.569518131798E+03    0.19491E-03   -0.56402E-04  6048   0.493E-02    0.531E-02
RMM:   4    -0.569518076076E+03    0.55722E-04   -0.27795E-04  6048   0.336E-02    0.105E-02
RMM:   5    -0.569518078672E+03   -0.25960E-05   -0.58022E-05  5508   0.209E-02    0.633E-03
RMM:   6    -0.569518104727E+03   -0.26054E-04   -0.98796E-05  5401   0.272E-02    0.223E-03
RMM:   7    -0.569518081309E+03    0.23418E-04   -0.10007E-04  5353   0.272E-02    0.123E-03
RMM:   8    -0.569518066106E+03    0.15203E-04   -0.14983E-05  4701   0.102E-02    0.426E-04
RMM:   9    -0.569518066274E+03   -0.16841E-06   -0.27008E-07  3471   0.162E-03

  63 F= -.56951807E+03 E0= -.56951807E+03  d E =-.120657E-02  mag=     0.0000
       N       E                     dE             d eps       ncg     rms          rms(c)
DAV:   1    -0.569508485311E+03    0.95808E-02   -0.80148E+00  6048   0.651E+00    0.539E-01
RMM:   2    -0.569521164659E+03   -0.12679E-01   -0.17356E-01  6048   0.881E-01    0.231E-01
RMM:   3    -0.569519899208E+03    0.12655E-02   -0.36552E-03  6048   0.124E-01    0.137E-01
RMM:   4    -0.569519451053E+03    0.44815E-03   -0.17754E-03  6048   0.780E-02    0.272E-02
RMM:   5    -0.569519462242E+03   -0.11189E-04   -0.59097E-05  6048   0.135E-02    0.165E-02
RMM:   6    -0.569519464006E+03   -0.17641E-05   -0.18163E-05  5692   0.780E-03

  64 F= -.56951946E+03 E0= -.56951946E+03  d E =-.260430E-02  mag=     0.0000
       N       E                     dE             d eps       ncg     rms          rms(c)
DAV:   1    -0.569518364899E+03    0.10973E-02   -0.17944E+00  6048   0.308E+00    0.226E-01
RMM:   2    -0.569521430219E+03   -0.30653E-02   -0.37875E-02  6048   0.413E-01    0.107E-01
RMM:   3    -0.569521160549E+03    0.26967E-03   -0.75096E-04  6048   0.560E-02    0.665E-02
RMM:   4    -0.569521058455E+03    0.10209E-03   -0.46313E-04  6048   0.397E-02    0.135E-02
RMM:   5    -0.569521060214E+03   -0.17593E-05   -0.10395E-05  4926   0.626E-03

  65 F= -.56952106E+03 E0= -.56952106E+03  d E =-.159621E-02  mag=     0.0000
       N       E                     dE             d eps       ncg     rms          rms(c)
DAV:   1    -0.569511207639E+03    0.98508E-02   -0.80239E+00  6048   0.651E+00    0.482E-01
RMM:   2    -0.569525064326E+03   -0.13857E-01   -0.17154E-01  6048   0.878E-01    0.227E-01
RMM:   3    -0.569523848933E+03    0.12154E-02   -0.33594E-03  6048   0.119E-01    0.142E-01
RMM:   4    -0.569523385679E+03    0.46325E-03   -0.21939E-03  6048   0.863E-02    0.301E-02
RMM:   5    -0.569523388791E+03   -0.31119E-05   -0.50166E-05  6052   0.135E-02    0.169E-02
RMM:   6    -0.569523390801E+03   -0.20106E-05   -0.18662E-05  5550   0.895E-03    0.661E-03
RMM:   7    -0.569523396401E+03   -0.55994E-05   -0.14059E-05  5180   0.109E-02    0.260E-03
RMM:   8    -0.569523392093E+03    0.43075E-05   -0.95603E-06  4544   0.991E-03    0.971E-04
RMM:   9    -0.569523391528E+03    0.56487E-06   -0.24254E-06  3885   0.457E-03

  66 F= -.56952339E+03 E0= -.56952339E+03  d E =-.392752E-02  mag=     0.0000
       N       E                     dE             d eps       ncg     rms          rms(c)
DAV:   1    -0.569474844629E+03    0.48547E-01   -0.32060E+01  6048   0.130E+01    0.984E-01
RMM:   2    -0.569530342349E+03   -0.55498E-01   -0.69615E-01  6048   0.177E+00    0.452E-01
RMM:   3    -0.569525520495E+03    0.48219E-02   -0.13491E-02  6048   0.238E-01    0.286E-01
RMM:   4    -0.569523649126E+03    0.18714E-02   -0.93403E-03  6048   0.178E-01    0.651E-02
RMM:   5    -0.569523635350E+03    0.13776E-04   -0.21350E-04  6048   0.267E-02    0.349E-02
RMM:   6    -0.569523638949E+03   -0.35984E-05   -0.88214E-05  6048   0.164E-02    0.154E-02
RMM:   7    -0.569523642047E+03   -0.30989E-05   -0.40615E-05  6032   0.122E-02    0.790E-03
RMM:   8    -0.569523641094E+03    0.95349E-06   -0.78038E-06  4990   0.574E-03

  67 F= -.56952364E+03 E0= -.56952364E+03  d E =-.417709E-02  mag=     0.0000
       N       E                     dE             d eps       ncg     rms          rms(c)
DAV:   1    -0.569514426252E+03    0.92158E-02   -0.65748E+00  6048   0.590E+00    0.426E-01
RMM:   2    -0.569525665479E+03   -0.11239E-01   -0.13744E-01  6048   0.788E-01    0.207E-01
RMM:   3    -0.569524645316E+03    0.10202E-02   -0.27730E-03  6048   0.108E-01    0.127E-01
RMM:   4    -0.569524273658E+03    0.37166E-03   -0.15971E-03  6048   0.739E-02    0.246E-02
RMM:   5    -0.569524280036E+03   -0.63787E-05   -0.48480E-05  6048   0.150E-02    0.143E-02
RMM:   6    -0.569524283739E+03   -0.37029E-05   -0.29998E-05  5338   0.139E-02    0.439E-03
RMM:   7    -0.569524302603E+03   -0.18863E-04   -0.65972E-05  5293   0.215E-02    0.131E-03
RMM:   8    -0.569524276192E+03    0.26411E-04   -0.32998E-05  4976   0.149E-02    0.749E-04
RMM:   9    -0.569524275671E+03    0.52123E-06   -0.47370E-07  3701   0.170E-03

  68 F= -.56952428E+03 E0= -.56952428E+03  d E =-.481166E-02  mag=     0.0000
       N       E                     dE             d eps       ncg     rms          rms(c)
DAV:   1    -0.569520713748E+03    0.35624E-02   -0.32906E+00  6048   0.417E+00    0.297E-01
RMM:   2    -0.569526532431E+03   -0.58187E-02   -0.69765E-02  6048   0.560E-01    0.147E-01
RMM:   3    -0.569526027644E+03    0.50479E-03   -0.13346E-03  6048   0.750E-02    0.933E-02
RMM:   4    -0.569525820498E+03    0.20715E-03   -0.95264E-04  6048   0.566E-02    0.204E-02
RMM:   5    -0.569525818745E+03    0.17530E-05   -0.22798E-05  5930   0.860E-03    0.106E-02
RMM:   6    -0.569525818267E+03    0.47775E-06   -0.52854E-06  4090   0.423E-03

  69 F= -.56952582E+03 E0= -.56952582E+03  d E =-.154260E-02  mag=     0.0000
       N       E                     dE             d eps       ncg     rms          rms(c)
DAV:   1    -0.569512241696E+03    0.13577E-01   -0.90342E+00  6048   0.691E+00    0.497E-01
RMM:   2    -0.569528246114E+03   -0.16004E-01   -0.19283E-01  6048   0.931E-01    0.243E-01
RMM:   3    -0.569526862619E+03    0.13835E-02   -0.36783E-03  6048   0.125E-01    0.155E-01
RMM:   4    -0.569526291377E+03    0.57124E-03   -0.26829E-03  6048   0.950E-02    0.348E-02
RMM:   5    -0.569526282789E+03    0.85881E-05   -0.66724E-05  6050   0.151E-02    0.179E-02
RMM:   6    -0.569526280437E+03    0.23519E-05   -0.18309E-05  5505   0.811E-03    0.793E-03
RMM:   7    -0.569526282014E+03   -0.15774E-05   -0.14442E-05  5334   0.942E-03

  70 F= -.56952628E+03 E0= -.56952628E+03  d E =-.200634E-02  mag=     0.0000
       N       E                     dE             d eps       ncg     rms          rms(c)
DAV:   1    -0.569525082357E+03    0.11981E-02   -0.86404E-01  6144   0.214E+00    0.151E-01
RMM:   2    -0.569526597872E+03   -0.15155E-02   -0.18084E-02  6048   0.286E-01    0.747E-02
RMM:   3    -0.569526465460E+03    0.13241E-03   -0.35586E-04  6048   0.398E-02    0.471E-02
RMM:   4    -0.569526429823E+03    0.35638E-04   -0.25256E-04  6048   0.325E-02    0.967E-03
RMM:   5    -0.569526430376E+03   -0.55376E-06   -0.60171E-05  5330   0.230E-02    0.537E-03
RMM:   6    -0.569526435668E+03   -0.52921E-05   -0.71139E-05  5321   0.247E-02    0.234E-03
RMM:   7    -0.569526429951E+03    0.57174E-05   -0.70574E-05  5286   0.244E-02    0.118E-03
RMM:   8    -0.569526412975E+03    0.16976E-04   -0.16768E-05  4780   0.115E-02    0.463E-04
RMM:   9    -0.569526413063E+03   -0.88174E-07   -0.56906E-07  3580   0.186E-03

  71 F= -.56952641E+03 E0= -.56952641E+03  d E =-.213739E-02  mag=     0.0000
       N       E                     dE             d eps       ncg     rms          rms(c)
DAV:   1    -0.569526647766E+03   -0.23479E-03   -0.16803E-01  6176   0.944E-01    0.767E-02
RMM:   2    -0.569526922773E+03   -0.27501E-03   -0.36334E-03  6048   0.128E-01    0.367E-02
RMM:   3    -0.569526892378E+03    0.30395E-04   -0.78245E-05  6048   0.180E-02    0.219E-02
RMM:   4    -0.569526880242E+03    0.12137E-04   -0.42721E-05  6048   0.120E-02    0.459E-03
RMM:   5    -0.569526880141E+03    0.10027E-06   -0.16614E-06  3744   0.238E-03

  72 F= -.56952688E+03 E0= -.56952688E+03  d E =-.467079E-03  mag=     0.0000
       N       E                     dE             d eps       ncg     rms          rms(c)
DAV:   1    -0.569525782694E+03    0.10975E-02   -0.11450E+00  6048   0.246E+00    0.201E-01
RMM:   2    -0.569527660847E+03   -0.18782E-02   -0.24860E-02  6048   0.334E-01    0.960E-02
RMM:   3    -0.569527451864E+03    0.20898E-03   -0.53337E-04  6048   0.470E-02    0.575E-02
RMM:   4    -0.569527367789E+03    0.84075E-04   -0.29838E-04  6048   0.318E-02    0.121E-02
RMM:   5    -0.569527365919E+03    0.18703E-05   -0.13301E-05  5236   0.620E-03

  73 F= -.56952737E+03 E0= -.56952737E+03  d E =-.952856E-03  mag=     0.0000
       N       E                     dE             d eps       ncg     rms          rms(c)
DAV:   1    -0.569527551501E+03   -0.18371E-03   -0.17662E-01  6128   0.972E-01    0.775E-02
RMM:   2    -0.569527851440E+03   -0.29994E-03   -0.38599E-03  6048   0.132E-01    0.387E-02
RMM:   3    -0.569527817503E+03    0.33938E-04   -0.84341E-05  6048   0.186E-02    0.231E-02
RMM:   4    -0.569527806402E+03    0.11101E-04   -0.50150E-05  6048   0.130E-02    0.489E-03
RMM:   5    -0.569527806772E+03   -0.36976E-06   -0.16499E-06  3745   0.295E-03

  74 F= -.56952781E+03 E0= -.56952781E+03  d E =-.440853E-03  mag=     0.0000
       N       E                     dE             d eps       ncg     rms          rms(c)
DAV:   1    -0.569526626115E+03    0.11803E-02   -0.11703E+00  6048   0.250E+00    0.199E-01
RMM:   2    -0.569528565819E+03   -0.19397E-02   -0.25320E-02  6048   0.338E-01    0.984E-02
RMM:   3    -0.569528339333E+03    0.22649E-03   -0.54956E-04  6048   0.475E-02    0.588E-02
RMM:   4    -0.569528262590E+03    0.76743E-04   -0.33277E-04  6048   0.332E-02    0.122E-02
RMM:   5    -0.569528263681E+03   -0.10910E-05   -0.10908E-05  4922   0.695E-03

  75 F= -.56952826E+03 E0= -.56952826E+03  d E =-.897762E-03  mag=     0.0000
       N       E                     dE             d eps       ncg     rms          rms(c)
DAV:   1    -0.569528410454E+03   -0.14786E-03   -0.96062E-02  6272   0.718E-01    0.522E-02
RMM:   2    -0.569528585983E+03   -0.17553E-03   -0.20786E-03  6048   0.972E-02    0.303E-02
RMM:   3    -0.569528566224E+03    0.19758E-04   -0.43668E-05  6048   0.137E-02    0.189E-02
RMM:   4    -0.569528560252E+03    0.59721E-05   -0.37325E-05  6048   0.118E-02    0.430E-03
RMM:   5    -0.569528561399E+03   -0.11467E-05   -0.92022E-06  4483   0.758E-03

  76 F= -.56952856E+03 E0= -.56952856E+03  d E =-.297718E-03  mag=     0.0000
       N       E                     dE             d eps       ncg     rms          rms(c)
DAV:   1    -0.569528130153E+03    0.43010E-03   -0.45931E-01  6048   0.157E+00    0.113E-01
RMM:   2    -0.569528959398E+03   -0.82925E-03   -0.98542E-03  6048   0.211E-01    0.657E-02
RMM:   3    -0.569528865253E+03    0.94145E-04   -0.20545E-04  6048   0.297E-02    0.411E-02
RMM:   4    -0.569528834222E+03    0.31031E-04   -0.17565E-04  6048   0.254E-02    0.933E-03
RMM:   5    -0.569528837996E+03   -0.37744E-05   -0.36072E-05  5206   0.151E-02    0.383E-03
RMM:   6    -0.569528840248E+03   -0.22519E-05   -0.49661E-05  5206   0.175E-02    0.206E-03
RMM:   7    -0.569528839598E+03    0.65074E-06   -0.51683E-05  5175   0.175E-02    0.108E-03
RMM:   8    -0.569528827594E+03    0.12004E-04   -0.12828E-05  4644   0.851E-03    0.438E-04
RMM:   9    -0.569528827634E+03   -0.39658E-07   -0.14553E-07  3393   0.101E-03

  77 F= -.56952883E+03 E0= -.56952883E+03  d E =-.563953E-03  mag=     0.0000
       N       E                     dE             d eps       ncg     rms          rms(c)
DAV:   1    -0.569528893151E+03   -0.65557E-04   -0.12933E-01  6080   0.830E-01    0.568E-02
RMM:   2    -0.569529132050E+03   -0.23890E-03   -0.28383E-03  6048   0.113E-01    0.331E-02
RMM:   3    -0.569529107268E+03    0.24782E-04   -0.56259E-05  6048   0.152E-02    0.219E-02
RMM:   4    -0.569529095471E+03    0.11797E-04   -0.55567E-05  6048   0.134E-02    0.470E-03
RMM:   5    -0.569529095216E+03    0.25482E-06   -0.12221E-06  3744   0.210E-03

  78 F= -.56952910E+03 E0= -.56952910E+03  d E =-.267582E-03  mag=     0.0000
       N       E                     dE             d eps       ncg     rms          rms(c)
DAV:   1    -0.569529083115E+03    0.12356E-04   -0.24137E-02  6400   0.359E-01    0.248E-02
RMM:   2    -0.569529128624E+03   -0.45509E-04   -0.53795E-04  6048   0.492E-02    0.145E-02
RMM:   3    -0.569529123907E+03    0.47168E-05   -0.10306E-05  4747   0.664E-03    0.968E-03
RMM:   4    -0.569529121731E+03    0.21765E-05   -0.12694E-05  5488   0.652E-03    0.238E-03
RMM:   5    -0.569529121651E+03    0.79794E-07   -0.47558E-07  3738   0.147E-03

  79 F= -.56952912E+03 E0= -.56952912E+03  d E =-.294017E-03  mag=     0.0000
       N       E                     dE             d eps       ncg     rms          rms(c)
DAV:   1    -0.569529195981E+03   -0.74251E-04   -0.60007E-02  6064   0.565E-01    0.419E-02
RMM:   2    -0.569529302814E+03   -0.10683E-03   -0.13326E-03  6048   0.775E-02    0.221E-02
RMM:   3    -0.569529290707E+03    0.12107E-04   -0.27432E-05  6048   0.108E-02    0.138E-02
RMM:   4    -0.569529284863E+03    0.58444E-05   -0.19772E-05  5710   0.800E-03    0.296E-03
RMM:   5    -0.569529284665E+03    0.19743E-06   -0.92058E-07  3744   0.189E-03

  80 F= -.56952928E+03 E0= -.56952928E+03  d E =-.163014E-03  mag=     0.0000
       N       E                     dE             d eps       ncg     rms          rms(c)
DAV:   1    -0.569529238896E+03    0.45966E-04   -0.68450E-02  6064   0.604E-01    0.447E-02
RMM:   2    -0.569529360593E+03   -0.12170E-03   -0.15242E-03  6048   0.829E-02    0.237E-02
RMM:   3    -0.569529346286E+03    0.14307E-04   -0.31431E-05  6048   0.116E-02    0.148E-02
RMM:   4    -0.569529339070E+03    0.72162E-05   -0.23295E-05  5778   0.867E-03    0.325E-03
RMM:   5    -0.569529338704E+03    0.36654E-06   -0.13634E-06  3744   0.255E-03

  81 F= -.56952934E+03 E0= -.56952934E+03  d E =-.217053E-03  mag=     0.0000
       N       E                     dE             d eps       ncg     rms          rms(c)
DAV:   1    -0.569529410075E+03   -0.71005E-04   -0.33499E-02  6128   0.422E-01    0.300E-02
RMM:   2    -0.569529471076E+03   -0.61000E-04   -0.72854E-04  6048   0.573E-02    0.153E-02
RMM:   3    -0.569529465625E+03    0.54508E-05   -0.14267E-05  5620   0.792E-03    0.980E-03
RMM:   4    -0.569529464024E+03    0.16014E-05   -0.11467E-05  5488   0.668E-03

  82 F= -.56952946E+03 E0= -.56952946E+03  d E =-.125320E-03  mag=     0.0000
       N       E                     dE             d eps       ncg     rms          rms(c)
DAV:   1    -0.569529227829E+03    0.23780E-03   -0.30115E-01  6048   0.126E+00    0.903E-02
RMM:   2    -0.569529772654E+03   -0.54483E-03   -0.65373E-03  6048   0.171E-01    0.457E-02
RMM:   3    -0.569529724722E+03    0.47932E-04   -0.12820E-04  6048   0.233E-02    0.293E-02
RMM:   4    -0.569529706844E+03    0.17878E-04   -0.93309E-05  6048   0.180E-02    0.601E-03
RMM:   5    -0.569529707168E+03   -0.32382E-06   -0.50277E-06  4136   0.597E-03

  83 F= -.56952971E+03 E0= -.56952971E+03  d E =-.368464E-03  mag=     0.0000
       N       E                     dE             d eps       ncg     rms          rms(c)
DAV:   1    -0.569527684396E+03    0.20224E-02   -0.12055E+00  6048   0.253E+00    0.181E-01
RMM:   2    -0.569529864125E+03   -0.21797E-02   -0.26218E-02  6048   0.343E-01    0.915E-02
RMM:   3    -0.569529670612E+03    0.19351E-03   -0.51286E-04  6048   0.465E-02    0.587E-02
RMM:   4    -0.569529596980E+03    0.73632E-04   -0.37735E-04  6048   0.360E-02    0.121E-02
RMM:   5    -0.569529597668E+03   -0.68796E-06   -0.18094E-05  5070   0.107E-02

  84 F= -.56952960E+03 E0= -.56952960E+03  d E =-.258964E-03  mag=     0.0000
       N       E                     dE             d eps       ncg     rms          rms(c)
DAV:   1    -0.569528975174E+03    0.62181E-03   -0.51066E-01  6048   0.164E+00    0.116E-01
RMM:   2    -0.569529876350E+03   -0.90118E-03   -0.10931E-02  6048   0.222E-01    0.591E-02
RMM:   3    -0.569529791413E+03    0.84937E-04   -0.21733E-04  6048   0.307E-02    0.377E-02
RMM:   4    -0.569529765331E+03    0.26082E-04   -0.16232E-04  6048   0.248E-02    0.731E-03
RMM:   5    -0.569529765311E+03    0.20218E-07   -0.30078E-05  5058   0.145E-02    0.407E-03
RMM:   6    -0.569529766966E+03   -0.16555E-05   -0.34317E-05  5120   0.151E-02    0.187E-03
RMM:   7    -0.569529763793E+03    0.31726E-05   -0.30835E-05  4985   0.141E-02    0.974E-04
RMM:   8    -0.569529757342E+03    0.64518E-05   -0.69020E-06  4365   0.637E-03    0.320E-04
RMM:   9    -0.569529757289E+03    0.52916E-07   -0.13439E-07  2862   0.975E-04

  85 F= -.56952976E+03 E0= -.56952976E+03  d E =-.418585E-03  mag=     0.0000
       N       E                     dE             d eps       ncg     rms          rms(c)
DAV:   1    -0.569529812280E+03   -0.54938E-04   -0.90154E-02  6080   0.692E-01    0.437E-02
RMM:   2    -0.569529983341E+03   -0.17106E-03   -0.19313E-03  6048   0.935E-02    0.249E-02
RMM:   3    -0.569529968425E+03    0.14916E-04   -0.35460E-05  6048   0.122E-02    0.169E-02
RMM:   4    -0.569529961405E+03    0.70198E-05   -0.37225E-05  5970   0.111E-02    0.423E-03
RMM:   5    -0.569529961157E+03    0.24860E-06   -0.70444E-07  3744   0.173E-03

  86 F= -.56952996E+03 E0= -.56952996E+03  d E =-.203868E-03  mag=     0.0000
       N       E                     dE             d eps       ncg     rms          rms(c)
DAV:   1    -0.569529717660E+03    0.24375E-03   -0.22558E-01  6080   0.109E+00    0.692E-02
RMM:   2    -0.569530148556E+03   -0.43090E-03   -0.48511E-03  6048   0.148E-01    0.396E-02
RMM:   3    -0.569530111304E+03    0.37252E-04   -0.89173E-05  6048   0.194E-02    0.268E-02
RMM:   4    -0.569530094000E+03    0.17304E-04   -0.94065E-05  6048   0.176E-02    0.675E-03
RMM:   5    -0.569530093268E+03    0.73245E-06   -0.17789E-06  3744   0.270E-03

  87 F= -.56953009E+03 E0= -.56953009E+03  d E =-.335979E-03  mag=     0.0000
       N       E                     dE             d eps       ncg     rms          rms(c)
DAV:   1    -0.569530167970E+03   -0.73970E-04   -0.59379E-02  6064   0.562E-01    0.378E-02
RMM:   2    -0.569530279427E+03   -0.11146E-03   -0.12741E-03  6048   0.756E-02    0.205E-02
RMM:   3    -0.569530269619E+03    0.98075E-05   -0.24259E-05  6042   0.100E-02    0.134E-02
RMM:   4    -0.569530265389E+03    0.42298E-05   -0.21921E-05  5822   0.850E-03    0.319E-03
RMM:   5    -0.569530265324E+03    0.65505E-07   -0.37903E-07  3740   0.133E-03

  88 F= -.56953027E+03 E0= -.56953027E+03  d E =-.172056E-03  mag=     0.0000
       N       E                     dE             d eps       ncg     rms          rms(c)
DAV:   1    -0.569529658870E+03    0.60652E-03   -0.53376E-01  6048   0.168E+00    0.113E-01
RMM:   2    -0.569530655347E+03   -0.99648E-03   -0.11425E-02  6048   0.226E-01    0.615E-02
RMM:   3    -0.569530566415E+03    0.88932E-04   -0.21809E-04  6048   0.301E-02    0.404E-02
RMM:   4    -0.569530527937E+03    0.38478E-04   -0.19780E-04  6048   0.255E-02    0.949E-03
RMM:   5    -0.569530526817E+03    0.11202E-05   -0.31116E-06  3754   0.365E-03

  89 F= -.56953053E+03 E0= -.56953053E+03  d E =-.433549E-03  mag=     0.0000
       N       E                     dE             d eps       ncg     rms          rms(c)
DAV:   1    -0.569530622040E+03   -0.94103E-04   -0.36452E-02  6208   0.440E-01    0.347E-02
RMM:   2    -0.569530687665E+03   -0.65625E-04   -0.81670E-04  6048   0.602E-02    0.171E-02
RMM:   3    -0.569530681368E+03    0.62969E-05   -0.17447E-05  5989   0.849E-03    0.105E-02
RMM:   4    -0.569530679074E+03    0.22947E-05   -0.10854E-05  5490   0.610E-03    0.236E-03
RMM:   5    -0.569530679139E+03   -0.65033E-07   -0.57041E-07  3744   0.186E-03

  90 F= -.56953068E+03 E0= -.56953068E+03  d E =-.152322E-03  mag=     0.0000
       N       E                     dE             d eps       ncg     rms          rms(c)
DAV:   1    -0.569530471931E+03    0.20714E-03   -0.32613E-01  6048   0.131E+00    0.104E-01
RMM:   2    -0.569531038740E+03   -0.56681E-03   -0.72028E-03  6048   0.179E-01    0.501E-02
RMM:   3    -0.569530983020E+03    0.55719E-04   -0.15443E-04  6048   0.252E-02    0.307E-02
RMM:   4    -0.569530962086E+03    0.20935E-04   -0.93356E-05  6048   0.177E-02    0.690E-03
RMM:   5    -0.569530961806E+03    0.27905E-06   -0.39391E-06  3873   0.421E-03

  91 F= -.56953096E+03 E0= -.56953096E+03  d E =-.434990E-03  mag=     0.0000
       N       E                     dE             d eps       ncg     rms          rms(c)
DAV:   1    -0.569528754276E+03    0.22078E-02   -0.13047E+00  6048   0.263E+00    0.209E-01
RMM:   2    -0.569531025871E+03   -0.22716E-02   -0.28941E-02  6048   0.359E-01    0.100E-01
RMM:   3    -0.569530802569E+03    0.22330E-03   -0.61896E-04  6048   0.505E-02    0.617E-02
RMM:   4    -0.569530718083E+03    0.84486E-04   -0.37918E-04  6048   0.357E-02    0.140E-02
RMM:   5    -0.569530716198E+03    0.18850E-05   -0.18060E-05  5542   0.836E-03

  92 F= -.56953072E+03 E0= -.56953072E+03  d E =-.189381E-03  mag=     0.0000
       N       E                     dE             d eps       ncg     rms          rms(c)
DAV:   1    -0.569529986085E+03    0.73200E-03   -0.69237E-01  6048   0.191E+00    0.150E-01
RMM:   2    -0.569531166316E+03   -0.11802E-02   -0.15061E-02  6048   0.259E-01    0.727E-02
RMM:   3    -0.569531046983E+03    0.11933E-03   -0.32398E-04  6048   0.366E-02    0.442E-02
RMM:   4    -0.569531005911E+03    0.41072E-04   -0.18980E-04  6048   0.256E-02    0.948E-03
RMM:   5    -0.569531005823E+03    0.87315E-07   -0.12178E-05  4911   0.868E-03

  93 F= -.56953101E+03 E0= -.56953101E+03  d E =-.479007E-03  mag=     0.0000
       N       E                     dE             d eps       ncg     rms          rms(c)
DAV:   1    -0.569531038379E+03   -0.32468E-04   -0.80555E-02  6048   0.655E-01    0.529E-02
RMM:   2    -0.569531170708E+03   -0.13233E-03   -0.17542E-03  6048   0.888E-02    0.245E-02
RMM:   3    -0.569531156208E+03    0.14499E-04   -0.39333E-05  6048   0.137E-02    0.145E-02
RMM:   4    -0.569531154826E+03    0.13822E-05   -0.25655E-05  5810   0.116E-02    0.309E-03
RMM:   5    -0.569531156389E+03   -0.15630E-05   -0.18091E-05  4796   0.121E-02

  94 F= -.56953116E+03 E0= -.56953116E+03  d E =-.150566E-03  mag=     0.0000
       N       E                     dE             d eps       ncg     rms          rms(c)
DAV:   1    -0.569530326358E+03    0.82847E-03   -0.72669E-01  6048   0.197E+00    0.161E-01
RMM:   2    -0.569531565972E+03   -0.12396E-02   -0.16072E-02  6048   0.268E-01    0.741E-02
RMM:   3    -0.569531444876E+03    0.12110E-03   -0.34675E-04  6048   0.388E-02    0.439E-02
RMM:   4    -0.569531412092E+03    0.32784E-04   -0.18724E-04  6048   0.275E-02    0.979E-03
RMM:   5    -0.569531416972E+03   -0.48796E-05   -0.39103E-05  5299   0.174E-02    0.478E-03
RMM:   6    -0.569531417299E+03   -0.32727E-06   -0.43461E-05  5132   0.184E-02    0.230E-03
RMM:   7    -0.569531431407E+03   -0.14108E-04   -0.66969E-05  5265   0.225E-02    0.118E-03
RMM:   8    -0.569531406465E+03    0.24942E-04   -0.24598E-05  4893   0.133E-02    0.398E-04
RMM:   9    -0.569531406579E+03   -0.11399E-06   -0.20673E-07  3695   0.146E-03

  95 F= -.56953141E+03 E0= -.56953141E+03  d E =-.400756E-03  mag=     0.0000
       N       E                     dE             d eps       ncg     rms          rms(c)
DAV:   1    -0.569531191129E+03    0.21534E-03   -0.16663E-01  6048   0.942E-01    0.768E-02
RMM:   2    -0.569531475469E+03   -0.28434E-03   -0.36677E-03  6048   0.128E-01    0.355E-02
RMM:   3    -0.569531447913E+03    0.27556E-04   -0.78637E-05  6048   0.182E-02    0.210E-02
RMM:   4    -0.569531438886E+03    0.90270E-05   -0.39818E-05  6048   0.118E-02    0.467E-03
RMM:   5    -0.569531439263E+03   -0.37744E-06   -0.13347E-06  3744   0.229E-03

  96 F= -.56953144E+03 E0= -.56953144E+03  d E =-.433440E-03  mag=     0.0000
       N       E                     dE             d eps       ncg     rms          rms(c)
DAV:   1    -0.569531322897E+03    0.11599E-03   -0.26836E-01  6080   0.119E+00    0.833E-02
RMM:   2    -0.569531821881E+03   -0.49898E-03   -0.57685E-03  6048   0.161E-01    0.427E-02
RMM:   3    -0.569531780179E+03    0.41701E-04   -0.11003E-04  6048   0.215E-02    0.276E-02
RMM:   4    -0.569531764216E+03    0.15964E-04   -0.88130E-05  6048   0.172E-02    0.646E-03
[...]

 153 F= -.56954052E+03 E0= -.56954052E+03  d E =-.252245E-03  mag=     0.0000
       N       E                     dE             d eps       ncg     rms          rms(c)
DAV:   1    -0.569540547264E+03   -0.29356E-04   -0.60815E-02  6064   0.571E-01    0.376E-02
RMM:   2    -0.569540660135E+03   -0.11287E-03   -0.13105E-03  6048   0.783E-02    0.209E-02
RMM:   3    -0.569540648152E+03    0.11983E-04   -0.29708E-05  6048   0.132E-02    0.136E-02
RMM:   4    -0.569540658102E+03   -0.99504E-05   -0.42051E-05  5880   0.164E-02    0.317E-03
RMM:   5    -0.569540654771E+03    0.33307E-05   -0.48811E-05  5161   0.200E-02    0.182E-03
RMM:   6    -0.569540647806E+03    0.69652E-05   -0.27024E-05  4964   0.146E-02    0.840E-04
RMM:   7    -0.569540643981E+03    0.38249E-05   -0.55170E-06  4221   0.633E-03    0.329E-04
RMM:   8    -0.569540643846E+03    0.13496E-06   -0.36679E-07  2868   0.140E-03

 154 F= -.56954064E+03 E0= -.56954064E+03  d E =-.124079E-03  mag=     0.0000
       N       E                     dE             d eps       ncg     rms          rms(c)
DAV:   1    -0.569539928380E+03    0.71560E-03   -0.54682E-01  6048   0.171E+00    0.112E-01
RMM:   2    -0.569540959777E+03   -0.10314E-02   -0.11594E-02  6048   0.229E-01    0.623E-02
RMM:   3    -0.569540871976E+03    0.87801E-04   -0.22152E-04  6048   0.305E-02    0.407E-02
RMM:   4    -0.569540837549E+03    0.34427E-04   -0.19412E-04  6048   0.256E-02    0.976E-03
RMM:   5    -0.569540836412E+03    0.11369E-05   -0.33698E-06  3767   0.383E-03

 155 F= -.56954084E+03 E0= -.56954084E+03  d E =-.316645E-03  mag=     0.0000
       N       E                     dE             d eps       ncg     rms          rms(c)
DAV:   1    -0.569540879734E+03   -0.42185E-04   -0.10756E-01  6048   0.756E-01    0.476E-02
RMM:   2    -0.569541091633E+03   -0.21190E-03   -0.23323E-03  6048   0.103E-01    0.272E-02
RMM:   3    -0.569541074772E+03    0.16861E-04   -0.43230E-05  6048   0.134E-02    0.186E-02
RMM:   4    -0.569541067803E+03    0.69691E-05   -0.47765E-05  6048   0.123E-02    0.520E-03
RMM:   5    -0.569541067091E+03    0.71155E-06   -0.17492E-06  3744   0.265E-03

 156 F= -.56954107E+03 E0= -.56954107E+03  d E =-.230679E-03  mag=     0.0000
       N       E                     dE             d eps       ncg     rms          rms(c)
DAV:   1    -0.569540880314E+03    0.18749E-03   -0.16994E-01  6048   0.950E-01    0.593E-02
RMM:   2    -0.569541212554E+03   -0.33224E-03   -0.36586E-03  6048   0.128E-01    0.339E-02
RMM:   3    -0.569541186031E+03    0.26523E-04   -0.67690E-05  6048   0.168E-02    0.232E-02
RMM:   4    -0.569541174734E+03    0.11297E-04   -0.75264E-05  6048   0.155E-02    0.654E-03
RMM:   5    -0.569541173615E+03    0.11183E-05   -0.31228E-06  3762   0.379E-03

 157 F= -.56954117E+03 E0= -.56954117E+03  d E =-.337203E-03  mag=     0.0000
       N       E                     dE             d eps       ncg     rms          rms(c)
DAV:   1    -0.569541111796E+03    0.62938E-04   -0.16359E-01  6048   0.931E-01    0.587E-02
RMM:   2    -0.569541433952E+03   -0.32216E-03   -0.34900E-03  6048   0.125E-01    0.332E-02
RMM:   3    -0.569541411682E+03    0.22270E-04   -0.63123E-05  6048   0.164E-02    0.226E-02
RMM:   4    -0.569541402935E+03    0.87467E-05   -0.63218E-05  6048   0.151E-02    0.650E-03
RMM:   5    -0.569541402257E+03    0.67846E-06   -0.54283E-06  4161   0.564E-03

 158 F= -.56954140E+03 E0= -.56954140E+03  d E =-.228641E-03  mag=     0.0000
       N       E                     dE             d eps       ncg     rms          rms(c)
DAV:   1    -0.569541345930E+03    0.57005E-04   -0.87194E-02  6080   0.680E-01    0.431E-02
RMM:   2    -0.569541517648E+03   -0.17172E-03   -0.18723E-03  6048   0.917E-02    0.243E-02
RMM:   3    -0.569541505153E+03    0.12495E-04   -0.34756E-05  6048   0.126E-02    0.165E-02
RMM:   4    -0.569541503939E+03    0.12138E-05   -0.38795E-05  6035   0.129E-02    0.463E-03
RMM:   5    -0.569541504622E+03   -0.68241E-06   -0.20349E-05  4940   0.113E-02    0.185E-03
RMM:   6    -0.569541505197E+03   -0.57532E-06   -0.24403E-05  5026   0.121E-02    0.108E-03
RMM:   7    -0.569541500766E+03    0.44307E-05   -0.13355E-05  4741   0.878E-03    0.711E-04
RMM:   8    -0.569541499528E+03    0.12386E-05   -0.14060E-06  3241   0.274E-03

 159 F= -.56954150E+03 E0= -.56954150E+03  d E =-.325912E-03  mag=     0.0000
       N       E                     dE             d eps       ncg     rms          rms(c)
DAV:   1    -0.569540916337E+03    0.58443E-03   -0.34861E-01  6048   0.136E+00    0.852E-02
RMM:   2    -0.569541602289E+03   -0.68595E-03   -0.74353E-03  6048   0.182E-01    0.488E-02
RMM:   3    -0.569541554201E+03    0.48088E-04   -0.13363E-04  6048   0.239E-02    0.332E-02
RMM:   4    -0.569541533304E+03    0.20896E-04   -0.13563E-04  6048   0.218E-02    0.963E-03
RMM:   5    -0.569541531310E+03    0.19942E-05   -0.51877E-06  4062   0.431E-03

 160 F= -.56954153E+03 E0= -.56954153E+03  d E =-.357695E-03  mag=     0.0000
       N       E                     dE             d eps       ncg     rms          rms(c)
DAV:   1    -0.569541812877E+03   -0.27957E-03   -0.31299E-02  6112   0.414E-01    0.589E-02
RMM:   2    -0.569541828818E+03   -0.15941E-04   -0.12867E-03  6048   0.745E-02    0.369E-02
RMM:   3    -0.569541789884E+03    0.38934E-04   -0.58064E-05  6048   0.144E-02    0.196E-02
RMM:   4    -0.569541771674E+03    0.18211E-04   -0.36980E-05  5900   0.100E-02    0.639E-03
RMM:   5    -0.569541767176E+03    0.44978E-05   -0.95893E-06  4983   0.431E-03    0.289E-03
RMM:   6    -0.569541766102E+03    0.10737E-05   -0.16196E-06  3744   0.223E-03

 161 F= -.56954177E+03 E0= -.56954177E+03  d E =-.234792E-03  mag=     0.0000
       N       E                     dE             d eps       ncg     rms          rms(c)
DAV:   1    -0.569541816979E+03   -0.49803E-04   -0.24927E-03  6912   0.117E-01    0.166E-02
RMM:   2    -0.569541817135E+03   -0.15642E-06   -0.10148E-04  6048   0.210E-02    0.105E-02
RMM:   3    -0.569541813739E+03    0.33963E-05   -0.40689E-06  3744   0.423E-03    0.571E-03
RMM:   4    -0.569541812346E+03    0.13926E-05   -0.42781E-06  3748   0.417E-03

 162 F= -.56954181E+03 E0= -.56954181E+03  d E =-.281036E-03  mag=     0.0000
       N       E                     dE             d eps       ncg     rms          rms(c)
DAV:   1    -0.569541883110E+03   -0.69372E-04   -0.13739E-02  6144   0.273E-01    0.253E-02
RMM:   2    -0.569541898289E+03   -0.15179E-04   -0.33319E-04  6048   0.390E-02    0.140E-02
RMM:   3    -0.569541892230E+03    0.60593E-05   -0.11000E-05  5681   0.694E-03    0.768E-03
RMM:   4    -0.569541891308E+03    0.92202E-06   -0.76569E-06  5035   0.577E-03

 163 F= -.56954189E+03 E0= -.56954189E+03  d E =-.789614E-04  mag=     0.0000
       N       E                     dE             d eps       ncg     rms          rms(c)
DAV:   1    -0.569541892487E+03   -0.25771E-06   -0.72988E-04  7144   0.633E-02    0.597E-03
RMM:   2    -0.569541893134E+03   -0.64669E-06   -0.20304E-05  6048   0.110E-02    0.353E-03
RMM:   3    -0.569541892562E+03    0.57159E-06   -0.12865E-06  3756   0.350E-03

 164 F= -.56954189E+03 E0= -.56954189E+03  d E =-.802162E-04  mag=     0.0000
       N       E                     dE             d eps       ncg     rms          rms(c)
DAV:   1    -0.569541936745E+03   -0.43611E-04   -0.96064E-03  6064   0.228E-01    0.193E-02
RMM:   2    -0.569541950223E+03   -0.13478E-04   -0.22581E-04  6048   0.330E-02    0.124E-02
RMM:   3    -0.569541945819E+03    0.44043E-05   -0.68468E-06  4391   0.653E-03    0.739E-03
RMM:   4    -0.569541946155E+03   -0.33594E-06   -0.94576E-06  5108   0.771E-03

 165 F= -.56954195E+03 E0= -.56954195E+03  d E =-.535921E-04  mag=     0.0000
       N       E                     dE             d eps       ncg     rms          rms(c)
DAV:   1    -0.569541949719E+03   -0.39000E-05   -0.28674E-03  6368   0.125E-01    0.107E-02
RMM:   2    -0.569541951980E+03   -0.22618E-05   -0.79760E-05  6048   0.220E-02    0.706E-03
RMM:   3    -0.569541949060E+03    0.29208E-05   -0.51602E-06  4123   0.709E-03    0.439E-03
RMM:   4    -0.569541954363E+03   -0.53033E-05   -0.12244E-05  4915   0.104E-02    0.128E-03
RMM:   5    -0.569541951350E+03    0.30132E-05   -0.17864E-05  4967   0.132E-02    0.849E-04
RMM:   6    -0.569541947705E+03    0.36452E-05   -0.46205E-06  4134   0.642E-03    0.432E-04
RMM:   7    -0.569541947653E+03    0.51687E-07   -0.71567E-07  3092   0.216E-03

 166 F= -.56954195E+03 E0= -.56954195E+03  d E =-.550904E-04  mag=     0.0000
       N       E                     dE             d eps       ncg     rms          rms(c)
DAV:   1    -0.569541984925E+03   -0.37221E-04   -0.13467E-02  6064   0.268E-01    0.269E-02
RMM:   2    -0.569541999300E+03   -0.14375E-04   -0.30709E-04  6048   0.374E-02    0.122E-02
RMM:   3    -0.569541995103E+03    0.41973E-05   -0.90092E-06  4984   0.622E-03    0.639E-03
RMM:   4    -0.569541994151E+03    0.95218E-06   -0.39438E-06  3839   0.438E-03

 167 F= -.56954199E+03 E0= -.56954199E+03  d E =-.464978E-04  mag=     0.0000
       N       E                     dE             d eps       ncg     rms          rms(c)
DAV:   1    -0.569541990006E+03    0.50972E-05   -0.26652E-02  6064   0.377E-01    0.380E-02
RMM:   2    -0.569542018762E+03   -0.28756E-04   -0.60561E-04  6048   0.526E-02    0.171E-02
RMM:   3    -0.569542010815E+03    0.79470E-05   -0.18934E-05  6048   0.897E-03    0.888E-03
RMM:   4    -0.569542009313E+03    0.15018E-05   -0.72742E-06  4553   0.607E-03

 168 F= -.56954201E+03 E0= -.56954201E+03  d E =-.616604E-04  mag=     0.0000
       N       E                     dE             d eps       ncg     rms          rms(c)
DAV:   1    -0.569542031833E+03   -0.21018E-04   -0.40604E-03  6512   0.146E-01    0.109E-02
RMM:   2    -0.569542037668E+03   -0.58350E-05   -0.88396E-05  6048   0.208E-02    0.533E-03
RMM:   3    -0.569542036473E+03    0.11949E-05   -0.29072E-06  3834   0.475E-03

 169 F= -.56954204E+03 E0= -.56954204E+03  d E =-.271598E-04  mag=     0.0000
       N       E                     dE             d eps       ncg     rms          rms(c)
DAV:   1    -0.569542047793E+03   -0.10125E-04   -0.36674E-02  6064   0.440E-01    0.317E-02
RMM:   2    -0.569542106430E+03   -0.58636E-04   -0.77701E-04  6048   0.599E-02    0.164E-02
RMM:   3    -0.569542098761E+03    0.76688E-05   -0.18499E-05  5760   0.103E-02    0.104E-02
RMM:   4    -0.569542103751E+03   -0.49905E-05   -0.25308E-05  5502   0.125E-02    0.215E-03
RMM:   5    -0.569542103272E+03    0.47915E-06   -0.35406E-05  5068   0.161E-02    0.133E-03
RMM:   6    -0.569542098380E+03    0.48923E-05   -0.21987E-05  4953   0.123E-02    0.727E-04
RMM:   7    -0.569542095681E+03    0.26992E-05   -0.54534E-06  4186   0.597E-03    0.370E-04
RMM:   8    -0.569542095344E+03    0.33636E-06   -0.36071E-07  2814   0.136E-03

 170 F= -.56954210E+03 E0= -.56954210E+03  d E =-.860310E-04  mag=     0.0000
       N       E                     dE             d eps       ncg     rms          rms(c)
DAV:   1    -0.569542125213E+03   -0.29532E-04   -0.10207E-03  6720   0.748E-02    0.128E-02
RMM:   2    -0.569542125035E+03    0.17781E-06   -0.31372E-05  6048   0.118E-02    0.509E-03
RMM:   3    -0.569542124659E+03    0.37600E-06   -0.17418E-06  3725   0.258E-03

 171 F= -.56954212E+03 E0= -.56954212E+03  d E =-.293146E-04  mag=     0.0000
       N       E                     dE             d eps       ncg     rms          rms(c)
DAV:   1    -0.569542155990E+03   -0.30955E-04   -0.60181E-03  6064   0.181E-01    0.314E-02
RMM:   2    -0.569542151556E+03    0.44341E-05   -0.18205E-04  6048   0.284E-02    0.126E-02
RMM:   3    -0.569542148395E+03    0.31602E-05   -0.11530E-05  5532   0.628E-03    0.510E-03
RMM:   4    -0.569542147914E+03    0.48117E-06   -0.14282E-06  3744   0.244E-03

 172 F= -.56954215E+03 E0= -.56954215E+03  d E =-.525697E-04  mag=     0.0000
       N       E                     dE             d eps       ncg     rms          rms(c)
DAV:   1    -0.569542169176E+03   -0.20781E-04   -0.13091E-03  6912   0.845E-02    0.913E-03
RMM:   2    -0.569542170665E+03   -0.14890E-05   -0.27724E-05  6048   0.112E-02    0.427E-03
RMM:   3    -0.569542170447E+03    0.21806E-06   -0.96644E-07  3731   0.203E-03

 173 F= -.56954217E+03 E0= -.56954217E+03  d E =-.225330E-04  mag=     0.0000
       N       E                     dE             d eps       ncg     rms          rms(c)
DAV:   1    -0.569542200119E+03   -0.29454E-04   -0.11816E-02  6064   0.254E-01    0.266E-02
RMM:   2    -0.569542211008E+03   -0.10889E-04   -0.25169E-04  6048   0.338E-02    0.131E-02
RMM:   3    -0.569542207204E+03    0.38039E-05   -0.93400E-06  5222   0.597E-03    0.666E-03
RMM:   4    -0.569542206027E+03    0.11765E-05   -0.31730E-06  3744   0.347E-03

 174 F= -.56954221E+03 E0= -.56954221E+03  d E =-.581131E-04  mag=     0.0000
       N       E                     dE             d eps       ncg     rms          rms(c)
DAV:   1    -0.569542238198E+03   -0.30994E-04   -0.15333E-03  6944   0.919E-02    0.202E-02
RMM:   2    -0.569542232159E+03    0.60389E-05   -0.53287E-05  6048   0.152E-02    0.643E-03
RMM:   3    -0.569542230891E+03    0.12680E-05   -0.33889E-06  3744   0.371E-03

 175 F= -.56954223E+03 E0= -.56954223E+03  d E =-.248639E-04  mag=     0.0000
       N       E                     dE             d eps       ncg     rms          rms(c)
DAV:   1    -0.569542254640E+03   -0.22481E-04   -0.29484E-03  6096   0.127E-01    0.280E-02
RMM:   2    -0.569542243612E+03    0.11028E-04   -0.99646E-05  6048   0.208E-02    0.925E-03
RMM:   3    -0.569542241216E+03    0.23967E-05   -0.66036E-06  4175   0.507E-03    0.328E-03
RMM:   4    -0.569542240711E+03    0.50452E-06   -0.11644E-06  3744   0.275E-03

 176 F= -.56954224E+03 E0= -.56954224E+03  d E =-.346838E-04  mag=     0.0000
       N       E                     dE             d eps       ncg     rms          rms(c)
DAV:   1    -0.569542260150E+03   -0.18935E-04   -0.23289E-03  6080   0.111E-01    0.129E-02
RMM:   2    -0.569542261197E+03   -0.10470E-05   -0.54540E-05  6048   0.159E-02    0.491E-03
RMM:   3    -0.569542260391E+03    0.80641E-06   -0.20520E-06  3751   0.364E-03

 177 F= -.56954226E+03 E0= -.56954226E+03  d E =-.196798E-04  mag=     0.0000
       N       E                     dE             d eps       ncg     rms          rms(c)
DAV:   1    -0.569542287125E+03   -0.25928E-04   -0.20950E-02  6064   0.334E-01    0.379E-02
RMM:   2    -0.569542303675E+03   -0.16550E-04   -0.47841E-04  6048   0.464E-02    0.150E-02
RMM:   3    -0.569542298320E+03    0.53552E-05   -0.16777E-05  6040   0.868E-03    0.701E-03
RMM:   4    -0.569542297623E+03    0.69690E-06   -0.46854E-06  4018   0.563E-03

 178 F= -.56954230E+03 E0= -.56954230E+03  d E =-.569124E-04  mag=     0.0000
       N       E                     dE             d eps       ncg     rms          rms(c)
DAV:   1    -0.569542371844E+03   -0.73523E-04   -0.39183E-03  6064   0.148E-01    0.471E-02
RMM:   2    -0.569542337403E+03    0.34440E-04   -0.19741E-04  6048   0.299E-02    0.133E-02
RMM:   3    -0.569542336010E+03    0.13934E-05   -0.21903E-05  5914   0.102E-02    0.417E-03
RMM:   4    -0.569542336841E+03   -0.83078E-06   -0.87844E-06  4437   0.842E-03

 179 F= -.56954234E+03 E0= -.56954234E+03  d E =-.392173E-04  mag=     0.0000
       N       E                     dE             d eps       ncg     rms          rms(c)
DAV:   1    -0.569542341010E+03   -0.50003E-05   -0.10874E-04  6080   0.263E-02    0.806E-03
RMM:   2    -0.569542338186E+03    0.28248E-05   -0.24649E-05  5160   0.140E-02    0.250E-03
RMM:   3    -0.569542340463E+03   -0.22777E-05   -0.19014E-05  4914   0.121E-02    0.800E-04
RMM:   4    -0.569542339530E+03    0.93290E-06   -0.20592E-05  4965   0.124E-02    0.575E-04
RMM:   5    -0.569542335441E+03    0.40893E-05   -0.63744E-06  4257   0.662E-03    0.270E-04
RMM:   6    -0.569542335342E+03    0.98606E-07   -0.20402E-07  2778   0.108E-03

 180 F= -.56954234E+03 E0= -.56954234E+03  d E =-.377190E-04  mag=     0.0000
       N       E                     dE             d eps       ncg     rms          rms(c)
DAV:   1    -0.569542352754E+03   -0.17313E-04   -0.31629E-03  6064   0.130E-01    0.158E-02
RMM:   2    -0.569542355753E+03   -0.29989E-05   -0.77229E-05  6048   0.186E-02    0.610E-03
RMM:   3    -0.569542355065E+03    0.68823E-06   -0.25782E-06  3728   0.336E-03

 181 F= -.56954236E+03 E0= -.56954236E+03  d E =-.197221E-04  mag=     0.0000
       N       E                     dE             d eps       ncg     rms          rms(c)
DAV:   1    -0.569542359581E+03   -0.38279E-05   -0.91538E-03  6064   0.221E-01    0.270E-02
RMM:   2    -0.569542366294E+03   -0.67130E-05   -0.21880E-04  6048   0.314E-02    0.107E-02
RMM:   3    -0.569542363618E+03    0.26755E-05   -0.81858E-06  4887   0.568E-03    0.483E-03
RMM:   4    -0.569542362846E+03    0.77219E-06   -0.19473E-06  3744   0.281E-03

 182 F= -.56954236E+03 E0= -.56954236E+03  d E =-.275035E-04  mag=     0.0000
       N       E                     dE             d eps       ncg     rms          rms(c)
DAV:   1    -0.569542369158E+03   -0.55402E-05   -0.43574E-04  7184   0.480E-02    0.329E-03
RMM:   2    -0.569542370050E+03   -0.89182E-06   -0.94910E-06  4851   0.681E-03    0.174E-03
RMM:   3    -0.569542370026E+03    0.23774E-07   -0.41094E-07  3735   0.162E-03

 183 F= -.56954237E+03 E0= -.56954237E+03  d E =-.718046E-05  mag=     0.0000
       N       E                     dE             d eps       ncg     rms          rms(c)
DAV:   1    -0.569542384475E+03   -0.14425E-04   -0.39957E-03  6064   0.145E-01    0.874E-03
RMM:   2    -0.569542392023E+03   -0.75478E-05   -0.81745E-05  6048   0.194E-02    0.485E-03
RMM:   3    -0.569542391466E+03    0.55677E-06   -0.13810E-06  3744   0.292E-03

 184 F= -.56954239E+03 E0= -.56954239E+03  d E =-.286201E-04  mag=     0.0000
       N       E                     dE             d eps       ncg     rms          rms(c)
DAV:   1    -0.569542405532E+03   -0.13510E-04   -0.15874E-02  6080   0.289E-01    0.174E-02
RMM:   2    -0.569542434731E+03   -0.29198E-04   -0.31762E-04  6048   0.381E-02    0.940E-03
RMM:   3    -0.569542432651E+03    0.20793E-05   -0.56835E-06  4187   0.563E-03    0.640E-03
RMM:   4    -0.569542433886E+03   -0.12344E-05   -0.86888E-06  4903   0.706E-03

 185 F= -.56954243E+03 E0= -.56954243E+03  d E =-.710397E-04  mag=     0.0000
       N       E                     dE             d eps       ncg     rms          rms(c)
DAV:   1    -0.569542394972E+03    0.37679E-04   -0.64423E-02  6048   0.584E-01    0.354E-02
RMM:   2    -0.569542519359E+03   -0.12439E-03   -0.13438E-03  6048   0.779E-02    0.196E-02
RMM:   3    -0.569542511129E+03    0.82303E-05   -0.23885E-05  5878   0.102E-02    0.134E-02
RMM:   4    -0.569542508876E+03    0.22531E-05   -0.24723E-05  5874   0.986E-03    0.403E-03
RMM:   5    -0.569542508098E+03    0.77759E-06   -0.30973E-06  3945   0.523E-03

 186 F= -.56954251E+03 E0= -.56954251E+03  d E =-.145252E-03  mag=     0.0000
       N       E                     dE             d eps       ncg     rms          rms(c)
DAV:   1    -0.569542188002E+03    0.32087E-03   -0.25779E-01  6048   0.117E+00    0.700E-02
RMM:   2    -0.569542679518E+03   -0.49152E-03   -0.53422E-03  6048   0.156E-01    0.396E-02
RMM:   3    -0.569542644674E+03    0.34845E-04   -0.95509E-05  6048   0.206E-02    0.271E-02
RMM:   4    -0.569542635669E+03    0.90046E-05   -0.10194E-04  6048   0.203E-02    0.787E-03
RMM:   5    -0.569542632186E+03    0.34833E-05   -0.18285E-05  4959   0.124E-02    0.350E-03
RMM:   6    -0.569542636875E+03   -0.46890E-05   -0.22693E-05  5028   0.136E-02    0.130E-03
RMM:   7    -0.569542639662E+03   -0.27873E-05   -0.38223E-05  5119   0.176E-02    0.872E-04
RMM:   8    -0.569542629042E+03    0.10620E-04   -0.11435E-05  4621   0.930E-03    0.401E-04
RMM:   9    -0.569542629045E+03   -0.20318E-08   -0.14082E-07  3281   0.107E-03
