  36  36   0   0
  0.1340578E+02  0.3767000E-09  0.1058100E-08  0.1210800E-08  0.5000000E-15
   1.0000000000000000E-004
  CAR
 RubyVaspy :: P Fe Th
     22.97688758    -72.93231429  301      9.25690117      1.00000000
    -72.932  0.0000E+00  0.0000E+00  0.0000E+00  0.0000E+00
    -72.613  0.0000E+00  0.0000E+00  0.0000E+00  0.0000E+00
    -72.293  0.0000E+00  0.0000E+00  0.0000E+00  0.0000E+00
    -71.973  0.0000E+00  0.0000E+00  0.0000E+00  0.0000E+00
    -71.654  0.0000E+00  0.0000E+00  0.0000E+00  0.0000E+00
    -71.334  0.0000E+00  0.0000E+00  0.0000E+00  0.0000E+00
    -71.014  0.0000E+00  0.0000E+00  0.0000E+00  0.0000E+00
    -70.694  0.0000E+00  0.0000E+00  0.0000E+00  0.0000E+00
    -70.375  0.0000E+00  0.0000E+00  0.0000E+00  0.0000E+00
    -70.055  0.0000E+00  0.0000E+00  0.0000E+00  0.0000E+00
    -69.735  0.0000E+00  0.0000E+00  0.0000E+00  0.0000E+00
    -69.416  0.0000E+00  0.0000E+00  0.0000E+00  0.0000E+00
    -69.096  0.0000E+00  0.0000E+00  0.0000E+00  0.0000E+00
    -68.776  0.0000E+00  0.0000E+00  0.0000E+00  0.0000E+00
    -68.457  0.0000E+00  0.0000E+00  0.4000E-01  0.4000E-01
    -68.137  0.0000E+00  0.0000E+00  0.6000E-01  0.6000E-01
    -67.817  0.0000E+00  0.0000E+00  0.6000E-01  0.6000E-01
    -67.497  0.0000E+00  0.0000E+00  0.6000E-01  0.6000E-01
    -67.178  0.0000E+00  0.0000E+00  0.6000E-01  0.6000E-01
    -66.858  0.0000E+00  0.0000E+00  0.6000E-01  0.6000E-01
    -66.538  0.0000E+00  0.0000E+00  0.6000E-01  0.6000E-01
    -66.219  0.0000E+00  0.0000E+00  0.6000E-01  0.6000E-01
    -65.899  0.0000E+00  0.0000E+00  0.6000E-01  0.6000E-01
    -65.579  0.0000E+00  0.0000E+00  0.6000E-01  0.6000E-01
    -65.260  0.0000E+00  0.0000E+00  0.6000E-01  0.6000E-01
    -64.940  0.0000E+00  0.0000E+00  0.6000E-01  0.6000E-01
    -64.620  0.0000E+00  0.0000E+00  0.6000E-01  0.6000E-01
    -64.300  0.0000E+00  0.0000E+00  0.6000E-01  0.6000E-01
    -63.981  0.0000E+00  0.0000E+00  0.6000E-01  0.6000E-01
    -63.661  0.0000E+00  0.0000E+00  0.6000E-01  0.6000E-01
    -63.341  0.0000E+00  0.0000E+00  0.6000E-01  0.6000E-01
    -63.022  0.0000E+00  0.0000E+00  0.6000E-01  0.6000E-01
    -62.702  0.0000E+00  0.0000E+00  0.6000E-01  0.6000E-01
    -62.382  0.0000E+00  0.0000E+00  0.6000E-01  0.6000E-01
    -62.063  0.0000E+00  0.0000E+00  0.6000E-01  0.6000E-01
    -61.743  0.0000E+00  0.0000E+00  0.6000E-01  0.6000E-01
    -61.423  0.0000E+00  0.0000E+00  0.6000E-01  0.6000E-01
    -61.104  0.0000E+00  0.0000E+00  0.6000E-01  0.6000E-01
    -60.784  0.0000E+00  0.0000E+00  0.6000E-01  0.6000E-01
    -60.464  0.0000E+00  0.0000E+00  0.6000E-01  0.6000E-01
    -60.144  0.0000E+00  0.0000E+00  0.6000E-01  0.6000E-01
    -59.825  0.0000E+00  0.0000E+00  0.6000E-01  0.6000E-01
    -59.505  0.0000E+00  0.0000E+00  0.6000E-01  0.6000E-01
    -59.185  0.0000E+00  0.0000E+00  0.6000E-01  0.6000E-01
    -58.866  0.0000E+00  0.0000E+00  0.6000E-01  0.6000E-01
    -58.546  0.0000E+00  0.0000E+00  0.6000E-01  0.6000E-01
    -58.226  0.0000E+00  0.0000E+00  0.6000E-01  0.6000E-01
    -57.907  0.0000E+00  0.0000E+00  0.6000E-01  0.6000E-01
    -57.587  0.0000E+00  0.0000E+00  0.6000E-01  0.6000E-01
    -57.267  0.0000E+00  0.0000E+00  0.6000E-01  0.6000E-01
    -56.947  0.0000E+00  0.0000E+00  0.6000E-01  0.6000E-01
    -56.628  0.0000E+00  0.0000E+00  0.6000E-01  0.6000E-01
    -56.308  0.0000E+00  0.0000E+00  0.6000E-01  0.6000E-01
    -55.988  0.0000E+00  0.0000E+00  0.6000E-01  0.6000E-01
    -55.669  0.0000E+00  0.0000E+00  0.6000E-01  0.6000E-01
    -55.349  0.0000E+00  0.0000E+00  0.6000E-01  0.6000E-01
    -55.029  0.0000E+00  0.0000E+00  0.6000E-01  0.6000E-01
    -54.710  0.0000E+00  0.0000E+00  0.6000E-01  0.6000E-01
    -54.390  0.0000E+00  0.0000E+00  0.6000E-01  0.6000E-01
    -54.070  0.0000E+00  0.0000E+00  0.6000E-01  0.6000E-01
    -53.750  0.0000E+00  0.0000E+00  0.6000E-01  0.6000E-01
    -53.431  0.0000E+00  0.0000E+00  0.6000E-01  0.6000E-01
    -53.111  0.0000E+00  0.2823E+00  0.1200E+00  0.9618E-01
    -52.791  0.0000E+00  0.0000E+00  0.1200E+00  0.1200E+00
    -52.472  0.0000E+00  0.0000E+00  0.1200E+00  0.1200E+00
    -52.152  0.0000E+00  0.0000E+00  0.1200E+00  0.1200E+00
    -51.832  0.0000E+00  0.0000E+00  0.1200E+00  0.1200E+00
    -51.513  0.0000E+00  0.0000E+00  0.1200E+00  0.1200E+00
    -51.193  0.0000E+00  0.0000E+00  0.1200E+00  0.1200E+00
    -50.873  0.0000E+00  0.0000E+00  0.1200E+00  0.1200E+00
    -50.554  0.0000E+00  0.0000E+00  0.1200E+00  0.1200E+00
    -50.234  0.0000E+00  0.0000E+00  0.1200E+00  0.1200E+00
    -49.914  0.0000E+00  0.0000E+00  0.1200E+00  0.1200E+00
    -49.594  0.0000E+00  0.0000E+00  0.1200E+00  0.1200E+00
    -49.275  0.0000E+00  0.0000E+00  0.1200E+00  0.1200E+00
    -48.955  0.0000E+00  0.0000E+00  0.1200E+00  0.1200E+00
    -48.635  0.0000E+00  0.0000E+00  0.1200E+00  0.1200E+00
    -48.316  0.0000E+00  0.0000E+00  0.1200E+00  0.1200E+00
    -47.996  0.0000E+00  0.0000E+00  0.1200E+00  0.1200E+00
    -47.676  0.0000E+00  0.0000E+00  0.1200E+00  0.1200E+00
    -47.357  0.0000E+00  0.0000E+00  0.1200E+00  0.1200E+00
    -47.037  0.0000E+00  0.0000E+00  0.1200E+00  0.1200E+00
    -46.717  0.0000E+00  0.0000E+00  0.1200E+00  0.1200E+00
    -46.397  0.0000E+00  0.0000E+00  0.1200E+00  0.1200E+00
    -46.078  0.0000E+00  0.0000E+00  0.1200E+00  0.1200E+00
    -45.758  0.0000E+00  0.0000E+00  0.1200E+00  0.1200E+00
    -45.438  0.0000E+00  0.0000E+00  0.1400E+00  0.1400E+00
    -45.119  0.0000E+00  0.0000E+00  0.1800E+00  0.1800E+00
    -44.799  0.0000E+00  0.0000E+00  0.1800E+00  0.1800E+00
    -44.479  0.0000E+00  0.0000E+00  0.1800E+00  0.1800E+00
    -44.160  0.0000E+00  0.0000E+00  0.1800E+00  0.1800E+00
    -43.840  0.0000E+00  0.0000E+00  0.1800E+00  0.1800E+00
    -43.520  0.0000E+00  0.0000E+00  0.1800E+00  0.1800E+00
    -43.200  0.0000E+00  0.0000E+00  0.1800E+00  0.1800E+00
    -42.881  0.0000E+00  0.0000E+00  0.1800E+00  0.1800E+00
    -42.561  0.0000E+00  0.0000E+00  0.1800E+00  0.1800E+00
    -42.241  0.0000E+00  0.0000E+00  0.1800E+00  0.1800E+00
    -41.922  0.0000E+00  0.0000E+00  0.1800E+00  0.1800E+00
    -41.602  0.0000E+00  0.0000E+00  0.1800E+00  0.1800E+00
    -41.282  0.0000E+00  0.0000E+00  0.1800E+00  0.1800E+00
    -40.963  0.0000E+00  0.0000E+00  0.1800E+00  0.1800E+00
    -40.643  0.0000E+00  0.0000E+00  0.1800E+00  0.1800E+00
    -40.323  0.0000E+00  0.0000E+00  0.1800E+00  0.1800E+00
    -40.003  0.0000E+00  0.0000E+00  0.1800E+00  0.1800E+00
    -39.684  0.0000E+00  0.0000E+00  0.1800E+00  0.1800E+00
    -39.364  0.0000E+00  0.0000E+00  0.1800E+00  0.1800E+00
    -39.044  0.0000E+00  0.0000E+00  0.1800E+00  0.1800E+00
    -38.725  0.0000E+00  0.0000E+00  0.1800E+00  0.1800E+00
    -38.405  0.0000E+00  0.0000E+00  0.1800E+00  0.1800E+00
    -38.085  0.0000E+00  0.0000E+00  0.1800E+00  0.1800E+00
    -37.766  0.0000E+00  0.0000E+00  0.1800E+00  0.1800E+00
    -37.446  0.0000E+00  0.0000E+00  0.1800E+00  0.1800E+00
    -37.126  0.0000E+00  0.0000E+00  0.1800E+00  0.1800E+00
    -36.807  0.0000E+00  0.0000E+00  0.1800E+00  0.1800E+00
    -36.487  0.0000E+00  0.0000E+00  0.1800E+00  0.1800E+00
    -36.167  0.0000E+00  0.0000E+00  0.2400E+00  0.2400E+00
    -35.847  0.0000E+00  0.0000E+00  0.2400E+00  0.2400E+00
    -35.528  0.0000E+00  0.0000E+00  0.2400E+00  0.2400E+00
    -35.208  0.0000E+00  0.0000E+00  0.2400E+00  0.2400E+00
    -34.888  0.0000E+00  0.0000E+00  0.2400E+00  0.2400E+00
    -34.569  0.0000E+00  0.0000E+00  0.2400E+00  0.2400E+00
    -34.249  0.0000E+00  0.0000E+00  0.2400E+00  0.2400E+00
    -33.929  0.0000E+00  0.0000E+00  0.2400E+00  0.2400E+00
    -33.610  0.0000E+00  0.0000E+00  0.2400E+00  0.2400E+00
    -33.290  0.0000E+00  0.0000E+00  0.2400E+00  0.2400E+00
    -32.970  0.0000E+00  0.0000E+00  0.2400E+00  0.2400E+00
    -32.650  0.0000E+00  0.0000E+00  0.2400E+00  0.2400E+00
    -32.331  0.0000E+00  0.0000E+00  0.2400E+00  0.2400E+00
    -32.011  0.0000E+00  0.0000E+00  0.2400E+00  0.2400E+00
    -31.691  0.0000E+00  0.0000E+00  0.2400E+00  0.2400E+00
    -31.372  0.0000E+00  0.0000E+00  0.2400E+00  0.2400E+00
    -31.052  0.0000E+00  0.0000E+00  0.2400E+00  0.2400E+00
    -30.732  0.0000E+00  0.0000E+00  0.2400E+00  0.2400E+00
    -30.413  0.0000E+00  0.0000E+00  0.2400E+00  0.2400E+00
    -30.093  0.0000E+00  0.0000E+00  0.2400E+00  0.2400E+00
    -29.773  0.0000E+00  0.0000E+00  0.2400E+00  0.2400E+00
    -29.453  0.0000E+00  0.0000E+00  0.2400E+00  0.2400E+00
    -29.134  0.0000E+00  0.0000E+00  0.2400E+00  0.2400E+00
    -28.814  0.0000E+00  0.0000E+00  0.2400E+00  0.2400E+00
    -28.494  0.0000E+00  0.0000E+00  0.2400E+00  0.2400E+00
    -28.175  0.0000E+00  0.0000E+00  0.2400E+00  0.2400E+00
    -27.855  0.0000E+00  0.0000E+00  0.2600E+00  0.2600E+00
    -27.535  0.0000E+00  0.0000E+00  0.2600E+00  0.2600E+00
    -27.216  0.0000E+00  0.0000E+00  0.2600E+00  0.2600E+00
    -26.896  0.0000E+00  0.0000E+00  0.2600E+00  0.2600E+00
    -26.576  0.0000E+00  0.0000E+00  0.2600E+00  0.2600E+00
    -26.257  0.0000E+00  0.0000E+00  0.2800E+00  0.2600E+00
    -25.937  0.0000E+00  0.0000E+00  0.3200E+00  0.3200E+00
    -25.617  0.0000E+00  0.0000E+00  0.3200E+00  0.3200E+00
    -25.297  0.0000E+00  0.0000E+00  0.3200E+00  0.3200E+00
    -24.978  0.0000E+00  0.0000E+00  0.3200E+00  0.3200E+00
    -24.658  0.0000E+00  0.0000E+00  0.3200E+00  0.3200E+00
    -24.338  0.0000E+00  0.0000E+00  0.3200E+00  0.3200E+00
    -24.019  0.0000E+00  0.0000E+00  0.3200E+00  0.3200E+00
    -23.699  0.0000E+00  0.0000E+00  0.3200E+00  0.3200E+00
    -23.379  0.0000E+00  0.0000E+00  0.3200E+00  0.3200E+00
    -23.060  0.0000E+00  0.0000E+00  0.3200E+00  0.3200E+00
    -22.740  0.0000E+00  0.0000E+00  0.3200E+00  0.3200E+00
    -22.420  0.0000E+00  0.0000E+00  0.3200E+00  0.3200E+00
    -22.100  0.0000E+00  0.0000E+00  0.3200E+00  0.3200E+00
    -21.781  0.0000E+00  0.0000E+00  0.3200E+00  0.3200E+00
    -21.461  0.0000E+00  0.0000E+00  0.3200E+00  0.3200E+00
    -21.141  0.0000E+00  0.0000E+00  0.3200E+00  0.3200E+00
    -20.822  0.0000E+00  0.0000E+00  0.3200E+00  0.3200E+00
    -20.502  0.0000E+00  0.0000E+00  0.3200E+00  0.3200E+00
    -20.182  0.0000E+00  0.0000E+00  0.3200E+00  0.3200E+00
    -19.863  0.0000E+00  0.0000E+00  0.3200E+00  0.3200E+00
    -19.543  0.0000E+00  0.0000E+00  0.3200E+00  0.3200E+00
    -19.223  0.0000E+00  0.0000E+00  0.3200E+00  0.3200E+00
    -18.903  0.0000E+00  0.0000E+00  0.3200E+00  0.3200E+00
    -18.584  0.0000E+00  0.0000E+00  0.3200E+00  0.3200E+00
    -18.264  0.0000E+00  0.0000E+00  0.3200E+00  0.3200E+00
    -17.944  0.0000E+00  0.0000E+00  0.3200E+00  0.3200E+00
    -17.625  0.0000E+00  0.0000E+00  0.3200E+00  0.3200E+00
    -17.305  0.0000E+00  0.0000E+00  0.3200E+00  0.3200E+00
    -16.985  0.0000E+00  0.0000E+00  0.3200E+00  0.3200E+00
    -16.666  0.0000E+00  0.0000E+00  0.3200E+00  0.3200E+00
    -16.346  0.0000E+00  0.0000E+00  0.3200E+00  0.3200E+00
    -16.026  0.0000E+00  0.0000E+00  0.3200E+00  0.3200E+00
    -15.706  0.0000E+00  0.0000E+00  0.3200E+00  0.3200E+00
    -15.387  0.0000E+00  0.0000E+00  0.3200E+00  0.3200E+00
    -15.067  0.0000E+00  0.0000E+00  0.3200E+00  0.3200E+00
    -14.747  0.0000E+00  0.0000E+00  0.3200E+00  0.3200E+00
    -14.428  0.0000E+00  0.0000E+00  0.3200E+00  0.3200E+00
    -14.108  0.0000E+00  0.0000E+00  0.3200E+00  0.3200E+00
    -13.788  0.3072E-01  0.4095E-01  0.3268E+00  0.3236E+00
    -13.469  0.7522E-01  0.7721E-01  0.3549E+00  0.3535E+00
    -13.149  0.5826E-02  0.2836E-02  0.3646E+00  0.3677E+00
    -12.829  0.5359E-02  0.3076E-02  0.3662E+00  0.3686E+00
    -12.510  0.1571E-01  0.8092E-02  0.3694E+00  0.3707E+00
    -12.190  0.1529E-01  0.9460E-02  0.3746E+00  0.3744E+00
    -11.870  0.1742E-01  0.1982E-01  0.3813E+00  0.3792E+00
    -11.550  0.1835E-01  0.1361E-01  0.3876E+00  0.3845E+00
    -11.231  0.2684E-01  0.2040E-01  0.3946E+00  0.3902E+00
    -10.911  0.2211E-01  0.1766E-01  0.4028E+00  0.3972E+00
    -10.591  0.2666E-01  0.1936E-01  0.4116E+00  0.4037E+00
    -10.272  0.2595E-01  0.3346E-01  0.4202E+00  0.4126E+00
     -9.952  0.1805E-01  0.3714E-01  0.4281E+00  0.4232E+00
     -9.632  0.2072E-01  0.2788E-01  0.4366E+00  0.4342E+00
     -9.313  0.1813E-01  0.2229E-01  0.4441E+00  0.4420E+00
     -8.993  0.1822E-01  0.2048E-01  0.4518E+00  0.4481E+00
     -8.673  0.5446E-01  0.1818E-01  0.4582E+00  0.4561E+00
     -8.353  0.1724E-01  0.1827E-01  0.4649E+00  0.4624E+00
     -8.034  0.1583E-01  0.1940E-01  0.4718E+00  0.4694E+00
     -7.714  0.9996E-02  0.1104E-01  0.4770E+00  0.4763E+00
     -7.394  0.6616E-02  0.5460E-02  0.4801E+00  0.4796E+00
     -7.075  0.7988E-02  0.9074E-02  0.4834E+00  0.4829E+00
     -6.755  0.1119E-01  0.1429E-01  0.4870E+00  0.4871E+00
     -6.435  0.2264E-01  0.1849E-01  0.4928E+00  0.4951E+00
     -6.116  0.2826E-01  0.2502E-01  0.5032E+00  0.5032E+00
     -5.796  0.2899E-01  0.3649E-01  0.5147E+00  0.5123E+00
     -5.476  0.1729E-01  0.1852E-01  0.5232E+00  0.5213E+00
     -5.156  0.1515E-01  0.1395E-01  0.5290E+00  0.5283E+00
     -4.837  0.1015E-01  0.1076E-01  0.5340E+00  0.5333E+00
     -4.517  0.1115E-01  0.8788E-02  0.5377E+00  0.5368E+00
     -4.197  0.3135E-02  0.3508E-02  0.5398E+00  0.5398E+00
     -3.878  0.1769E-02  0.5053E-02  0.5414E+00  0.5408E+00
     -3.558  0.2057E-02  0.2692E-02  0.5420E+00  0.5426E+00
     -3.238  0.2660E-02  0.2394E-02  0.5430E+00  0.5437E+00
     -2.919  0.3115E-02  0.2433E-02  0.5439E+00  0.5445E+00
     -2.599  0.9494E-02  0.4835E-02  0.5462E+00  0.5461E+00
     -2.279  0.1604E-01  0.1251E-01  0.5513E+00  0.5499E+00
     -1.960  0.4107E-01  0.2030E-01  0.5653E+00  0.5565E+00
     -1.640  0.6038E-01  0.3765E-01  0.5849E+00  0.5667E+00
     -1.320  0.7499E-01  0.1057E+00  0.6077E+00  0.5893E+00
     -1.000  0.5515E-01  0.7373E-01  0.6305E+00  0.6153E+00
     -0.681  0.2092E-01  0.3616E-01  0.6423E+00  0.6364E+00
     -0.361  0.2424E-01  0.1944E-01  0.6501E+00  0.6466E+00
     -0.041  0.2384E-01  0.2002E-01  0.6596E+00  0.6546E+00
      0.278  0.2093E-01  0.2252E-01  0.6687E+00  0.6639E+00
      0.598  0.2545E-01  0.3221E-01  0.6769E+00  0.6747E+00
      0.918  0.3011E-01  0.2733E-01  0.6874E+00  0.6842E+00
      1.237  0.4112E-01  0.2827E-01  0.7019E+00  0.6938E+00
      1.557  0.2110E-01  0.3505E-01  0.7126E+00  0.7058E+00
      1.877  0.2132E-01  0.2462E-01  0.7190E+00  0.7154E+00
      2.197  0.7449E-02  0.1796E-01  0.7254E+00  0.7235E+00
      2.516  0.1043E-01  0.1419E-01  0.7285E+00  0.7293E+00
      2.836  0.2915E-01  0.3194E-01  0.7353E+00  0.7358E+00
      3.156  0.1470E-01  0.1015E-01  0.7418E+00  0.7420E+00
      3.475  0.1382E-01  0.1124E-01  0.7479E+00  0.7464E+00
      3.795  0.1759E-01  0.2558E-01  0.7532E+00  0.7538E+00
      4.115  0.5975E-01  0.3589E-01  0.7664E+00  0.7650E+00
      4.434  0.4295E-01  0.3843E-01  0.7823E+00  0.7771E+00
      4.754  0.2762E-01  0.5144E-01  0.7961E+00  0.7938E+00
      5.074  0.3060E-01  0.6100E-01  0.8117E+00  0.8105E+00
      5.394  0.5192E-01  0.4865E-01  0.8278E+00  0.8295E+00
      5.713  0.3289E-01  0.4067E-01  0.8502E+00  0.8458E+00
      6.033  0.3298E-01  0.4275E-01  0.8615E+00  0.8658E+00
      6.353  0.3006E-01  0.2673E-01  0.8722E+00  0.8787E+00
      6.672  0.1284E-01  0.1451E-01  0.8792E+00  0.8865E+00
      6.992  0.2880E-01  0.1541E-01  0.8885E+00  0.8937E+00
      7.312  0.2733E-01  0.1037E-01  0.8981E+00  0.8985E+00
      7.631  0.1358E-01  0.1656E-01  0.9073E+00  0.9050E+00
      7.951  0.3325E-01  0.2637E-01  0.9130E+00  0.9136E+00
      8.271  0.2992E-01  0.3327E-01  0.9234E+00  0.9246E+00
      8.591  0.2829E-01  0.2904E-01  0.9359E+00  0.9351E+00
      8.910  0.4157E-01  0.6570E-01  0.9478E+00  0.9530E+00
      9.230  0.5204E-01  0.3926E-01  0.9672E+00  0.9695E+00
      9.550  0.5520E-01  0.1136E+00  0.9899E+00  0.9877E+00
      9.869  0.8495E-01  0.6537E-01  0.1018E+01  0.1015E+01
     10.189  0.9580E-01  0.1269E+00  0.1055E+01  0.1051E+01
     10.509  0.1084E+00  0.1038E+00  0.1095E+01  0.1083E+01
     10.828  0.8817E-01  0.7914E-01  0.1127E+01  0.1111E+01
     11.148  0.1177E+00  0.1009E+00  0.1165E+01  0.1148E+01
     11.468  0.1150E+00  0.8896E-01  0.1208E+01  0.1187E+01
     11.787  0.8046E-01  0.7749E-01  0.1243E+01  0.1216E+01
     12.107  0.6727E-01  0.8673E-01  0.1271E+01  0.1248E+01
     12.427  0.5537E-01  0.5753E-01  0.1291E+01  0.1274E+01
     12.747  0.1946E-01  0.4395E-01  0.1303E+01  0.1294E+01
     13.066  0.1643E-01  0.2515E-01  0.1311E+01  0.1307E+01
     13.386  0.1812E-01  0.1872E-01  0.1318E+01  0.1316E+01
     13.706  0.2115E-01  0.1809E-01  0.1327E+01  0.1322E+01
     14.025  0.2790E-01  0.2385E-01  0.1336E+01  0.1330E+01
     14.345  0.2147E-01  0.3800E-01  0.1345E+01  0.1340E+01
     14.665  0.2595E-01  0.3317E-01  0.1353E+01  0.1352E+01
     14.984  0.2668E-01  0.2521E-01  0.1363E+01  0.1362E+01
     15.304  0.3081E-01  0.2866E-01  0.1374E+01  0.1372E+01
     15.624  0.2954E-01  0.3075E-01  0.1385E+01  0.1384E+01
     15.944  0.2740E-01  0.2690E-01  0.1396E+01  0.1395E+01
     16.263  0.2288E-01  0.2782E-01  0.1406E+01  0.1404E+01
     16.583  0.2359E-01  0.3147E-01  0.1414E+01  0.1415E+01
     16.903  0.1767E-01  0.1431E-01  0.1423E+01  0.1424E+01
     17.222  0.1345E-01  0.1399E-01  0.1429E+01  0.1429E+01
     17.542  0.5573E-02  0.5657E-02  0.1433E+01  0.1432E+01
     17.862  0.2777E-02  0.2231E-02  0.1434E+01  0.1434E+01
     18.181  0.0000E+00  0.9910E-03  0.1435E+01  0.1435E+01
     18.501  0.0000E+00  0.3726E-03  0.1435E+01  0.1435E+01
     18.821  0.0000E+00  0.0000E+00  0.1435E+01  0.1435E+01
     19.141  0.0000E+00  0.0000E+00  0.1435E+01  0.1435E+01
     19.460  0.0000E+00  0.0000E+00  0.1435E+01  0.1435E+01
     19.780  0.0000E+00  0.0000E+00  0.1435E+01  0.1435E+01
     20.100  0.0000E+00  0.0000E+00  0.1435E+01  0.1435E+01
     20.419  0.0000E+00  0.0000E+00  0.1435E+01  0.1435E+01
     20.739  0.0000E+00  0.0000E+00  0.1435E+01  0.1435E+01
     21.059  0.0000E+00  0.0000E+00  0.1435E+01  0.1435E+01
     21.378  0.0000E+00  0.0000E+00  0.1435E+01  0.1435E+01
     21.698  0.0000E+00  0.0000E+00  0.1435E+01  0.1435E+01
     22.018  0.0000E+00  0.0000E+00  0.1435E+01  0.1435E+01
     22.337  0.0000E+00  0.0000E+00  0.1435E+01  0.1435E+01
     22.657  0.0000E+00  0.0000E+00  0.1435E+01  0.1435E+01
     22.977  0.0000E+00  0.0000E+00  0.1435E+01  0.1435E+01
