   36   36  200    2
  0.1340578E+02  0.3767000E-09  0.1058100E-08  0.1210800E-08  0.5000000E-15
   1.0000000000000000E-004
  CAR
 RubyVaspy :: P Fe Th
  388    8  287

  0.6250000E-01  0.1250000E+00  0.2500000E+00  0.1250000E+00
   1      -68.551430    -68.503238
   2      -68.552211    -68.533106
   3      -68.572805    -68.524488
   4      -68.565928    -68.516506
   5      -68.565377    -68.531740
   6      -68.569129    -68.520529
   7      -68.533275    -68.467666
   8      -68.530326    -68.469924
   9      -68.386918    -68.358271
  10      -68.391069    -68.356138
  11      -68.368638    -68.336311
  12      -68.371002    -68.339725
  13      -53.379030    -53.174629
  14      -53.379440    -53.179441
  15      -53.375964    -53.170769
  16      -53.378509    -53.176485
  17      -53.361323    -53.164503
  18      -53.361526    -53.163391
  19      -53.303157    -53.101279
  20      -53.302572    -53.100996
  21      -53.264553    -53.091486
  22      -53.264363    -53.090459
  23      -53.239911    -53.062547
  24      -53.239122    -53.060714
  25      -45.455213    -45.565899
  26      -45.455148    -45.565707
  27      -45.455062    -45.565807
  28      -45.455006    -45.565663
  29      -45.159602    -45.239816
  30      -45.159646    -45.239666
  31      -45.159505    -45.239608
  32      -45.159340    -45.238899
  33      -45.131446    -45.237943
  34      -45.131321    -45.238027
  35      -45.131298    -45.237868
  36      -45.131255    -45.238515
  37      -36.250045    -36.297802
  38      -36.247912    -36.297711
  39      -36.248832    -36.297146
  40      -36.243058    -36.296329
  41      -36.245375    -36.267123
  42      -36.238502    -36.265662
  43      -36.240784    -36.266041
  44      -36.238339    -36.266739
  45      -36.236787    -36.258478
  46      -36.236531    -36.259571
  47      -36.236617    -36.259498
  48      -36.238537    -36.259222
  49      -28.007370    -27.971856
  50      -28.006993    -27.971251
  51      -28.005670    -27.969932
  52      -28.004871    -27.969614
  53      -26.290627    -26.242214
  54      -26.291313    -26.246173
  55      -26.291111    -26.241760
  56      -26.289467    -26.245790
  57      -26.220721    -26.127487
  58      -26.216451    -26.129198
  59      -26.217080    -26.131102
  60      -26.216455    -26.128389
  61      -26.111215    -26.027136
  62      -26.110532    -26.026676
  63      -26.110311    -26.023558
  64      -26.112466    -26.027615
  65      -13.562221    -13.615504
  66      -13.545461    -13.534332
  67      -13.507070    -13.523102
  68      -13.449791    -13.485575
  69      -14.031758    -13.403616
  70      -13.633427    -13.303793
  71      -13.370446    -13.793077
  72      -10.830039    -13.713285
  73      -10.097609     -9.774535
  74      -13.440617     -9.728835
  75      -13.411249    -13.446946
  76      -10.239352    -12.785503
  77       -9.902081     -9.143526
  78       -9.276114    -10.096789
  79      -10.082610    -10.223051
  80       -7.918062     -9.094313
  81       -8.077771     -8.533396
  82       -9.112743     -8.746515
  83       -8.617568     -9.933700
  84       -8.544965     -8.863533
  85       -9.603388     -7.987834
  86       -9.685061     -8.039938
  87      -12.125500    -10.194277
  88      -12.470699    -11.141208
  89      -11.159056    -12.057288
  90      -10.967459     -9.724508
  91      -11.205213    -11.168959
  92      -10.370780    -11.251052
  93      -10.169859    -11.567881
  94      -11.389114     -9.929451
  95       -6.154177     -8.047432
  96       -4.454000     -5.112609
  97       -8.750892     -6.222547
  98       -8.063828     -6.444005
  99       -7.951102     -8.222708
 100       -4.713514     -5.284132
 101       -6.154491     -4.325142
 102       -5.663956     -5.738193
 103       -5.546969     -5.617612
 104       -6.961951     -7.201011
 105       -5.769838     -5.401647
 106       -7.099113     -6.092410
 107       -4.701425     -5.736065
 108       -6.619559     -5.327992
 109       -1.441924     -1.355845
 110       -1.904934     -2.841432
 111       -1.814869     -1.509744
 112       -2.035034     -1.795839
 113       -1.637069     -1.184975
 114       -1.206015     -1.043214
 115       -2.018295     -1.671385
 116       -1.407053     -2.328159
 117       -1.951057     -1.178000
 118       -2.263350     -1.800157
 119       -1.607731     -1.319097
 120       -1.160264     -0.357007
 121       -1.713219     -0.615961
 122       -1.536018     -1.192734
 123       -1.885289     -0.739069
 124       -1.353715     -0.428841
 125       -0.929907     -0.766979
 126       -0.638941     -1.412250
 127       -0.852097     -0.936802
 128       -1.519647     -0.586960
 129       -0.957320      0.268756
 130       -1.451851     -0.234978
 131       -0.277191     -0.273038
 132        0.737933      0.362864
 133        0.040649     -0.059195
 134       -0.101344      0.469157
 135       -0.677540      0.302988
 136        1.015866      1.623765
 137        0.401975      0.345399
 138        1.031099      1.756307
 139        1.216215      1.174218
 140        1.351105      1.724051
 141        1.088120      0.586079
 142        1.659857      1.853528
 143        1.840956      0.166081
 144        0.670169      1.339986
 145        1.881462      2.848526
 146        3.288367      2.750439
 147        2.919519      2.798324
 148        3.918511      4.139818
 149        4.195925      3.714911
 150        3.848206      3.934890
 151        4.420889      4.455793
 152        4.662743      4.893153
 153        4.648455      4.729035
 154        4.516433      4.474534
 155        4.565403      4.175714
 156        4.854142      4.758615
 157        5.048571      4.610992
 158        4.219959      5.010652
 159        4.942490      4.827372
 160        4.647884      5.137126
 161        5.482097      5.021068
 162        5.511329      5.090510
 163        4.853438      5.324275
 164        5.626830      5.654166
 165        5.670910      5.901570
 166        5.629413      5.940819
 167        5.810164      5.988579
 168        5.616345      5.929664
 169        5.792697      5.818202
 170        6.096518      6.214790
 171        5.995225      6.415030
 172        6.360227      6.169953
 173        6.481951      6.009332
 174        6.315469      6.364112
 175        6.900034      6.210493
 176        7.075974      6.669803
 177        7.019342      6.890533
 178        6.887182      6.908849
 179        7.074199      7.248842
 180        7.188098      7.476325
 181        7.413836      7.946000
 182        8.225497      7.857777
 183        8.045688      8.049896
 184        7.557651      8.072902
 185        8.355681      8.437965
 186        8.473435      8.735021
 187        8.497979      8.234349
 188        9.072870      9.283971
 189        8.729822      8.876080
 190        8.936564      9.026527
 191        9.452124      9.737075
 192        9.343795      9.621712
 193       10.104313      9.613745
 194        9.914616     10.161727
 195       10.288180     10.387822
 196        9.205463     10.160735
 197       10.309986      7.506281
 198        8.051781      7.555710
 199        7.973114      8.794133
 200        8.349272      8.509102
 201       10.777293      8.840615
 202       10.993231      8.707748
 203        8.949324      9.029510
 204       11.029662     11.378471
 205        9.168954      9.129975
 206        9.001328      9.156769
 207       11.640167      9.426827
 208        9.784244     11.510313
 209        9.611917     11.438759
 210        8.850303      9.470243
 211       10.054000     11.065022
 212       10.817921     10.358108
 213       10.272068     12.038864
 214        9.326090     10.616572
 215        9.470304     12.281997
 216       10.120906     10.586366
 217        9.788718     10.730140
 218       10.108590      9.595947
 219        9.634305      9.130843
 220        9.900303     10.000202
 221        9.688216     10.106899
 222       10.636426     10.134336
 223        9.816896      9.756515
 224       11.170387     11.585151
 225       10.270854      9.986146
 226       10.584607      9.959000
 227       11.443124     10.382409
 228        9.735664     11.179180
 229        9.925967      9.533381
 230       10.163143     10.503879
 231        9.588471     11.666411
 232       10.249613     11.357412
 233       11.335303     10.569745
 234       10.459326     10.631074
 235       10.611299     11.614085
 236       11.026256     10.868127
 237       10.156556     11.159424
 238       10.364058     10.706723
 239        9.304402     10.953815
 240       10.109366     11.780729
 241       12.228971     11.063541
 242       10.905048     10.853311
 243       11.570030     11.215307
 244       11.107736     12.466352
 245       11.987993     11.716566
 246       10.118861     11.298213
 247       12.964741     11.505035
 248       11.493383     12.156291
 249       11.092195     12.620889
 250       11.203449     11.937292
 251       11.164558     12.152620
 252       11.259621     12.169475
 253       13.577027     11.065628
 254       11.309045     10.970868
 255       11.019285     12.436456
 256       11.625075     12.124757
 257       11.923454     12.528413
 258       12.500575     12.680680
 259       12.184995     11.856162
 260       12.442583     12.331182
 261       11.843175     11.806206
 262       11.933841     12.665437
 263       12.669190     13.156625
 264       13.027793     12.200198
 265       13.570217     12.917609
 266       13.868229     13.913410
 267       15.870317     13.839798
 268       12.006799     12.519693
 269       13.445937     13.866627
 270       13.746315     13.775005
 271       13.501380     14.638694
 272       14.011855     14.576415
 273       15.093036     16.594429
 274       15.445059     14.401929
 275       15.680229     16.686099
 276       15.030238     15.622081
 277       13.872715     15.180025
 278       12.841097     15.401471
 279       14.511658     15.836299
 280       15.080255     15.426642
 281       15.051530     13.507534
 282       16.048595     14.378232
 283       15.454476     16.089531
 284       16.044367     16.920813
 285       15.340090     14.632675
 286       15.029117     15.966038
 287       14.973317     17.394126

  0.1875000E+00  0.1250000E+00  0.2500000E+00  0.1250000E+00
   1      -68.550047    -68.523443
   2      -68.553242    -68.530093
   3      -68.565900    -68.538459
   4      -68.562177    -68.539077
   5      -68.551970    -68.491713
   6      -68.561713    -68.494073
   7      -68.534605    -68.467662
   8      -68.535286    -68.464312
   9      -68.387983    -68.355713
  10      -68.390891    -68.355473
  11      -68.367767    -68.343342
  12      -68.376504    -68.334431
  13      -53.382429    -53.179580
  14      -53.384559    -53.180369
  15      -53.384329    -53.178113
  16      -53.379336    -53.179382
  17      -53.353589    -53.157480
  18      -53.354088    -53.157609
  19      -53.307107    -53.110939
  20      -53.306360    -53.111239
  21      -53.261153    -53.081759
  22      -53.261202    -53.082103
  23      -53.240224    -53.061706
  24      -53.238758    -53.061112
  25      -45.455203    -45.565895
  26      -45.455147    -45.565848
  27      -45.454976    -45.565757
  28      -45.454959    -45.565737
  29      -45.160158    -45.240468
  30      -45.159275    -45.240284
  31      -45.159277    -45.240001
  32      -45.159764    -45.239482
  33      -45.131449    -45.238258
  34      -45.131366    -45.237995
  35      -45.131294    -45.238056
  36      -45.131259    -45.237797
  37      -36.252341    -36.299486
  38      -36.250527    -36.299060
  39      -36.251718    -36.297037
  40      -36.249356    -36.296415
  41      -36.241206    -36.268501
  42      -36.241732    -36.267957
  43      -36.238958    -36.266540
  44      -36.239641    -36.266883
  45      -36.235650    -36.258501
  46      -36.236835    -36.258759
  47      -36.236140    -36.257365
  48      -36.235470    -36.258026
  49      -27.992369    -27.956755
  50      -27.992106    -27.956157
  51      -27.990680    -27.954987
  52      -27.990277    -27.954629
  53      -26.288885    -26.245254
  54      -26.289293    -26.242523
  55      -26.292466    -26.245410
  56      -26.290978    -26.243419
  57      -26.219559    -26.130577
  58      -26.222518    -26.129611
  59      -26.217376    -26.131550
  60      -26.217803    -26.130465
  61      -26.111070    -26.025111
  62      -26.109742    -26.026088
  63      -26.107049    -26.023559
  64      -26.111737    -26.027829
  65      -13.647423    -13.629980
  66      -13.647730    -13.540800
  67      -13.531470    -13.513129
  68      -13.431882    -13.525751
  69      -13.456453    -13.547047
  70      -13.436215    -13.353244
  71      -13.943283    -13.373671
  72      -13.750694    -13.808633
  73      -13.579170    -13.794943
  74      -10.559937    -12.299836
  75      -10.024874     -9.300452
  76      -12.988516    -12.390757
  77      -12.898489    -12.930407
  78      -11.287864    -10.092790
  79      -11.356947     -9.379594
  80      -10.530250    -10.176948
  81       -8.672658     -8.555727
  82       -8.185851     -8.625415
  83       -7.768955     -8.136849
  84       -7.802839     -7.508872
  85       -7.567948     -8.449360
  86       -8.532397     -7.792290
  87       -9.612303    -10.129030
  88      -10.928085    -11.650598
  89      -11.546534    -11.840090
  90      -11.231232    -10.192220
  91      -10.830275    -12.658452
  92      -11.597931    -10.229877
  93      -10.903520     -8.795713
  94      -10.063005    -10.451366
  95       -9.368176     -9.190962
  96       -5.421859     -7.625716
  97       -6.153920     -5.681248
  98       -7.109293     -5.466373
  99       -7.563883     -7.954789
 100       -4.510391     -5.610395
 101       -6.515115     -5.139992
 102       -5.754599     -6.355440
 103       -5.909039     -5.190737
 104       -5.015794     -5.699418
 105       -6.031749     -4.984624
 106       -5.443221     -6.955330
 107       -7.180876     -5.981368
 108       -5.550466     -5.776533
 109       -1.234153     -2.259388
 110       -1.188626     -1.860219
 111       -1.772707     -1.085320
 112       -1.498687     -1.286749
 113       -1.799275     -1.576788
 114       -1.717011     -1.153782
 115       -1.423313     -0.728710
 116       -1.713868     -1.179963
 117       -1.698435     -1.855985
 118       -0.891822     -1.076955
 119       -1.265301     -1.327937
 120       -1.693420     -0.985984
 121       -2.749174     -1.519845
 122       -1.318911     -1.638789
 123       -1.216444     -0.694021
 124       -0.977469     -0.938114
 125       -0.811798     -0.414353
 126       -1.279416     -1.657795
 127       -1.620378     -1.328419
 128       -0.839562     -1.091777
 129       -1.504532     -0.873712
 130       -0.046983     -1.160350
 131       -0.404974     -0.445476
 132       -0.093794     -1.297290
 133       -0.411585     -0.860787
 134        0.221112     -0.214645
 135        0.919847     -0.211953
 136        1.140945      0.781951
 137        1.193881      1.026551
 138        1.229206      1.352132
 139        0.728881      1.002153
 140        1.172338      1.518922
 141        1.495310      1.212155
 142        0.525887      1.323056
 143        2.042785      1.050452
 144        2.064873      0.978700
 145        2.563185      2.736001
 146        2.255267      2.604745
 147        2.942129      3.118003
 148        2.865691      2.874743
 149        3.264923      3.255258
 150        3.930002      4.000258
 151        4.430614      4.540242
 152        4.158590      4.264761
 153        4.119189      4.335378
 154        3.797716      4.508230
 155        4.804415      4.200183
 156        4.378167      4.682499
 157        4.639106      4.413002
 158        4.315543      5.245501
 159        4.595714      4.950137
 160        4.450553      4.746492
 161        5.689634      5.115069
 162        5.108217      5.365786
 163        5.081210      5.685689
 164        5.314761      5.157204
 165        5.419317      5.289660
 166        4.992408      5.700244
 167        5.521866      5.475494
 168        5.812861      5.503750
 169        5.740225      5.616772
 170        6.308210      5.799268
 171        5.818461      5.481515
 172        6.268192      6.013707
 173        5.819931      6.061352
 174        6.266912      6.639960
 175        6.847786      6.293640
 176        7.252012      6.461747
 177        7.291594      6.944239
 178        6.911203      7.251573
 179        7.378205      6.934695
 180        7.599727      7.364378
 181        7.554057      7.810842
 182        7.912793      8.303527
 183        8.022365      8.446714
 184        8.367098      8.506247
 185        8.087927      8.016052
 186        9.001448      8.868045
 187        8.770895      8.626000
 188        9.261676      9.313573
 189        9.033366      9.361044
 190        9.319502      9.241487
 191        9.788406      9.598781
 192        9.994578      9.623051
 193        9.903478      9.998600
 194        9.945997      9.892511
 195       10.257249      9.578330
 196        8.477505     10.271544
 197       10.255483      9.341067
 198        9.264393      8.142398
 199        8.512605      8.617793
 200        9.352361      8.866564
 201       10.959338      8.675546
 202       11.176855     10.996091
 203       11.161792      9.647318
 204       11.028838     11.159011
 205       10.952482      9.345916
 206       11.248919     11.391851
 207       11.489046      9.554359
 208       10.595972     11.719160
 209       10.422613     11.887224
 210        9.558560      9.630289
 211        8.680227      8.786744
 212       10.270015      9.704506
 213        9.632647     12.018099
 214        9.743915      9.311577
 215       10.428146     12.040679
 216        9.541748      9.927793
 217       10.237983     10.421254
 218       11.288556     10.774823
 219       10.372830     10.919601
 220       10.499163     11.382054
 221       11.008558     11.317061
 222       10.585576     11.444980
 223       10.626213     10.739520
 224       10.284906     11.016553
 225       11.323796     11.892593
 226       10.349168     10.179376
 227       10.319865     11.472644
 228       10.804682     10.671783
 229       11.232046     11.053939
 230       11.473588     10.214206
 231       11.085645     10.252324
 232       11.412012     11.788568
 233       10.503222     11.073551
 234       12.273514     10.906541
 235       11.925606     11.485072
 236       11.363561     10.830679
 237       10.410472     11.920571
 238       10.620608     11.766585
 239       11.865202     12.578349
 240       11.656129     12.633038
 241       11.628442     10.777212
 242       10.747329     11.931495
 243       12.241182     12.553137
 244       11.063081     11.772329
 245       11.748906     12.146023
 246       11.605372     12.880365
 247       11.783778     12.966497
 248       12.294945     11.257928
 249       11.569220     12.880865
 250       12.720262     13.381132
 251       10.739345     12.670299
 252       12.532391     12.419852
 253       11.564185     11.306016
 254       12.103593     13.155000
 255       10.805949     12.490618
 256       13.412581     11.811867
 257       11.560177     12.243334
 258       12.358720     12.014475
 259       12.379402     11.222624
 260       12.200963     12.032946
 261       12.129573     12.754821
 262       13.022162     12.672219
 263       14.078935     12.286458
 264       13.553729     12.865821
 265       14.172715     13.948303
 266       14.120698     13.231469
 267       14.167883     14.305552
 268       13.934054     13.732672
 269       14.825397     14.335489
 270       15.587367     13.950682
 271       13.606450     15.556034
 272       17.095273     15.827815
 273       16.504602     14.762400
 274       15.746175     15.513447
 275       15.848593     16.702282
 276       14.574040     15.329362
 277       16.167589     15.771470
 278       17.108886     15.727114
 279       16.377218     17.178692
 280       14.690791     17.084428
 281       17.318369     16.513840
 282       15.530885     16.664648
 283       14.973731     16.788342
 284       16.050599     16.080557
 285       13.904312     15.403002
 286       13.984602     16.398917
 287       13.665769     17.942756

  0.3125000E+00  0.1250000E+00  0.2500000E+00  0.1250000E+00
   1      -68.559665    -68.527596
   2      -68.563033    -68.535600
   3      -68.565684    -68.537207
   4      -68.562754    -68.536827
   5      -68.544953    -68.485504
   6      -68.544933    -68.485038
   7      -68.533325    -68.464871
   8      -68.537249    -68.465135
   9      -68.385965    -68.352301
  10      -68.388346    -68.353072
  11      -68.375509    -68.333223
  12      -68.370924    -68.337922
  13      -53.385864    -53.184569
  14      -53.385492    -53.183259
  15      -53.386623    -53.182948
  16      -53.386888    -53.183178
  17      -53.344501    -53.146370
  18      -53.344701    -53.147771
  19      -53.313764    -53.118471
  20      -53.314241    -53.120191
  21      -53.256472    -53.075783
  22      -53.254907    -53.074200
  23      -53.241981    -53.063342
  24      -53.240824    -53.061131
  25      -45.455099    -45.565774
  26      -45.454946    -45.565772
  27      -45.454977    -45.565730
  28      -45.454796    -45.565663
  29      -45.160498    -45.241249
  30      -45.160997    -45.240398
  31      -45.160886    -45.240337
  32      -45.160788    -45.240983
  33      -45.131362    -45.237984
  34      -45.131327    -45.237864
  35      -45.131211    -45.237762
  36      -45.131133    -45.237648
  37      -36.253117    -36.299528
  38      -36.253660    -36.298464
  39      -36.248053    -36.297614
  40      -36.249438    -36.297782
  41      -36.247241    -36.272676
  42      -36.242391    -36.271902
  43      -36.239036    -36.270330
  44      -36.240191    -36.268646
  45      -36.241033    -36.257729
  46      -36.235788    -36.258477
  47      -36.233576    -36.258696
  48      -36.236315    -36.256099
  49      -27.970592    -27.935587
  50      -27.970290    -27.935309
  51      -27.969495    -27.934041
  52      -27.968769    -27.933614
  53      -26.294441    -26.242305
  54      -26.289568    -26.243197
  55      -26.295095    -26.242905
  56      -26.291613    -26.243447
  57      -26.223804    -26.136813
  58      -26.221015    -26.136065
  59      -26.217194    -26.134820
  60      -26.216416    -26.136044
  61      -26.109695    -26.028266
  62      -26.109791    -26.024080
  63      -26.110855    -26.022925
  64      -26.108659    -26.023114
  65      -13.704611    -13.574258
  66      -13.568081    -13.591184
  67      -13.583717    -13.502031
  68      -13.512167    -13.406214
  69      -13.430827    -13.481511
  70      -13.406577    -13.975214
  71      -13.865360    -13.341836
  72      -13.763404    -13.797135
  73      -13.661674    -13.669030
  74      -13.616780    -13.137379
  75      -12.476848    -13.404319
  76      -10.007447    -10.391431
  77      -12.038347    -11.338018
  78      -10.910876    -12.687631
  79       -8.883448    -10.231312
  80      -10.104306     -9.284058
  81      -10.097063    -10.867916
  82       -8.935253     -9.033268
  83       -9.904644     -8.580799
  84       -9.915302     -9.341772
  85       -9.559813     -8.955295
  86       -8.145838     -9.006314
  87       -8.748476     -8.467427
  88      -10.012403     -8.628138
  89      -11.707901     -9.946505
  90      -12.466742    -12.220783
  91      -12.563642    -11.512479
  92      -11.871641    -12.571648
  93      -10.683476    -11.958634
  94      -10.541488    -10.184694
  95      -10.322817    -10.682650
  96       -8.355489     -9.118995
  97       -8.377624     -7.178837
  98       -4.428777     -6.478620
  99       -5.973407     -6.396629
 100       -5.030130     -5.623872
 101       -4.332604     -5.080411
 102       -4.524550     -4.829045
 103       -6.920530     -5.473333
 104       -6.227515     -5.798450
 105       -5.658959     -4.613431
 106       -5.884516     -4.332479
 107       -6.325362     -6.492854
 108       -5.925504     -6.102498
 109       -2.457510     -2.783512
 110       -2.534451     -1.391531
 111       -1.447810     -1.570426
 112       -1.366565     -2.552972
 113       -1.401435     -0.896058
 114       -2.005255     -1.755779
 115       -1.445121     -1.149832
 116       -1.106285     -1.466590
 117       -1.729241     -0.956488
 118       -1.188833     -1.374164
 119       -0.954416     -1.000261
 120       -1.970688     -1.366778
 121       -0.873347     -0.976170
 122       -0.929129     -1.016259
 123       -1.155013     -1.124949
 124       -0.559174     -0.803807
 125       -1.226322     -0.728798
 126       -0.729307     -0.572923
 127       -1.375671     -1.751844
 128       -1.935493     -0.905933
 129       -1.217078     -0.358711
 130       -1.710916     -0.254334
 131       -1.726017     -1.347000
 132       -0.045479      0.259923
 133       -0.371091      0.132292
 134        0.802530      0.923262
 135        0.806293      1.601652
 136        0.193197      0.403637
 137        1.641252      1.570707
 138        1.364228      2.148295
 139        1.399007      1.890277
 140        2.061114      1.451488
 141        1.344375      1.982252
 142        2.109333      1.890461
 143        1.217660      1.991454
 144        1.050280      2.269606
 145        1.740451      1.756844
 146        0.652014      2.816679
 147        0.743793      1.948483
 148        2.804651      1.158211
 149        3.282255      3.252309
 150        3.358906      4.046529
 151        4.104358      3.742318
 152        4.515406      4.139566
 153        4.088900      3.805254
 154        3.930180      4.327424
 155        3.882573      4.115837
 156        4.063991      4.765702
 157        4.406202      4.224736
 158        4.361839      4.563662
 159        4.391337      4.686259
 160        4.075462      5.054992
 161        4.775944      4.835080
 162        4.813871      4.779109
 163        5.112806      5.592994
 164        4.912347      5.073513
 165        5.690751      4.912610
 166        5.579599      5.420720
 167        5.260312      5.169840
 168        5.583937      5.505520
 169        5.162570      5.447441
 170        5.573937      5.595325
 171        6.079488      6.324422
 172        5.528377      5.620463
 173        6.215912      6.097384
 174        5.855496      5.753355
 175        6.397227      6.373990
 176        6.750035      6.687807
 177        7.050837      6.840738
 178        6.816556      7.064981
 179        7.571426      7.172223
 180        7.363659      7.482740
 181        7.783263      7.250292
 182        7.847239      8.214461
 183        8.338854      8.215516
 184        8.161152      8.393677
 185        8.339820      8.425577
 186        8.703566      8.974194
 187        9.062102      9.103097
 188        8.970453      9.452828
 189        9.221374      9.333614
 190        9.163563      9.584429
 191        9.628380      9.819381
 192        9.484109      9.745320
 193        9.718862     10.143492
 194        9.864322     10.259314
 195       10.419337      9.959586
 196        8.653248      8.355691
 197        8.085160     10.492180
 198        8.267766      8.494322
 199        9.169278      8.934142
 200        8.065398      8.788338
 201       11.169113     11.298573
 202       11.582496     11.257645
 203       11.447412     10.168738
 204       11.415884      9.953084
 205       11.226002      9.996503
 206       11.451303     12.232018
 207       11.951236      9.573337
 208        9.246704     12.063292
 209        9.593359      9.495071
 210       10.358855     10.697245
 211       10.249478     10.570409
 212       12.201466     10.244303
 213       10.546566     10.265675
 214        9.758142     10.255425
 215       10.487796     12.390165
 216       10.441112     11.213782
 217        9.404516     11.503290
 218       10.375769     10.324647
 219       11.249509     10.587206
 220        9.484268     11.294532
 221        9.840846      9.964496
 222       10.553312     10.280474
 223       10.301797     10.672921
 224       10.874567     10.536713
 225       11.797506     10.558086
 226       10.633111     11.500622
 227       11.054215     10.619835
 228       11.306930     11.725713
 229       11.362430     11.437512
 230       10.059862     11.627252
 231       10.951075     11.873278
 232       11.641260     12.046854
 233       12.505890     10.583476
 234       11.758152     11.367845
 235       10.408912     11.279088
 236       10.997635     11.775985
 237       12.130487     11.226459
 238       10.218106     11.223597
 239       12.595355     11.703963
 240        9.756776     11.415759
 241       11.333459     11.682775
 242       11.380454     12.483844
 243       11.820211     12.441553
 244       11.424953     12.507601
 245       10.500489     11.905959
 246       11.672326     11.567780
 247       11.694582     12.525596
 248       11.907751     11.414876
 249       11.916664     12.092062
 250       12.291744     12.337601
 251       12.211733     12.726247
 252       12.472848     10.711258
 253       11.939683     12.643257
 254       10.579363     12.942889
 255       12.301075     12.890421
 256       11.593019     11.200519
 257       11.635485     12.012544
 258       12.114911     12.321204
 259       12.432464     12.568470
 260       11.967998     12.367457
 261       12.653094     12.194141
 262       12.656493     13.232178
 263       13.154671     14.466679
 264       13.745289     12.807301
 265       13.652244     14.161184
 266       13.764079     14.102934
 267       13.540622     13.280226
 268       15.617787     16.214378
 269       14.573310     15.696576
 270       15.484629     15.882689
 271       15.868102     16.458566
 272       16.893934     17.998376
 273       17.719938     15.186439