<?xml version="1.0" encoding="ISO-8859-1"?>
<modeling>
 <generator>
  <i name="program" type="string">vasp </i>
  <i name="version" type="string">5.2.11  </i>
  <i name="subversion" type="string">01Dec10 complex  parallel </i>
  <i name="platform" type="string">unknown </i>
  <i name="date" type="string">2011 08 11 </i>
  <i name="time" type="string">23:29:21 </i>
 </generator>
 <incar>
  <i type="string" name="SYSTEM"> RubyVaspy :: B O Zn Tb</i>
  <i type="string" name="PREC">accurate</i>
  <i type="string" name="ALGO"> FAST</i>
  <i type="int" name="ISPIN">     2</i>
  <i type="int" name="ICHARG">     1</i>
  <i type="int" name="NELM">   100</i>
  <i type="int" name="NELMIN">     3</i>
  <i type="int" name="IBRION">     1</i>
  <i name="EDIFF">      0.00000200</i>
  <i type="int" name="NSW">   200</i>
  <i type="int" name="ISIF">     3</i>
  <i name="ENCUT">    520.00000000</i>
  <v name="MAGMOM">      0.60000000      0.60000000      0.60000000      0.60000000      0.60000000      0.60000000      0.60000000      0.60000000      0.60000000      0.60000000      0.60000000      0.60000000      0.60000000      0.60000000      0.60000000      0.60000000      0.60000000      0.60000000      0.60000000      0.60000000
      0.60000000      0.60000000      0.60000000      0.60000000      0.60000000      0.60000000      0.60000000      0.60000000      0.60000000      0.60000000      0.60000000      0.60000000      0.60000000      0.60000000      0.60000000      0.60000000      0.60000000      0.60000000      0.60000000      0.60000000
      0.60000000      0.60000000      0.60000000      0.60000000      0.60000000      0.60000000      0.60000000      0.60000000      0.60000000      0.60000000      0.60000000      0.60000000      0.60000000      0.60000000      0.60000000      0.60000000      0.60000000      0.60000000      0.60000000      0.60000000
      5.00000000      5.00000000      5.00000000      5.00000000      0.60000000      0.60000000      0.60000000      0.60000000</v>
  <i type="string" name="LREAL"> AUTO</i>
  <i type="int" name="ISMEAR">    -5</i>
  <i name="SIGMA">      0.05000000</i>
  <i type="logical" name="LWAVE"> T  </i>
  <i type="int" name="NELM">   100</i>
  <i type="logical" name="LPEAD"> F  </i>
  <i type="logical" name="LCALCPOL"> F  </i>
  <i type="logical" name="LCALCEPS"> F  </i>
  <v name="EFIELD_PEAD">      0.00000000      0.00000000      0.00000000</v>
  <i type="logical" name="LEFG"> F  </i>
  <i type="logical" name="LRHFATM"> F  </i>
  <i type="string" name="METAGGA">--</i>
  <i type="int" name="LMAXTAU">     0</i>
 </incar>
 <kpoints>
  <generation param="Monkhorst-Pack">
   <v type="int" name="divisions">       4        4        4 </v>
   <v name="usershift">      0.00000000       0.00000000       0.00000000 </v>
   <v name="genvec1">      0.25000000       0.00000000       0.00000000 </v>
   <v name="genvec2">      0.00000000       0.25000000       0.00000000 </v>
   <v name="genvec3">      0.00000000       0.00000000       0.25000000 </v>
   <v name="shift">      0.50000000       0.50000000       0.50000000 </v>
  </generation>
  <varray name="kpointlist" >
   <v>       0.12500000       0.12500000       0.12500000 </v>
   <v>       0.37500000       0.12500000       0.12500000 </v>
   <v>       0.12500000       0.37500000       0.12500000 </v>
   <v>       0.37500000       0.37500000       0.12500000 </v>
   <v>       0.12500000      -0.37500000       0.12500000 </v>
   <v>       0.37500000      -0.37500000       0.12500000 </v>
   <v>       0.12500000      -0.12500000       0.12500000 </v>
   <v>       0.37500000      -0.12500000       0.12500000 </v>
   <v>       0.12500000       0.12500000       0.37500000 </v>
   <v>       0.37500000       0.12500000       0.37500000 </v>
   <v>       0.12500000       0.37500000       0.37500000 </v>
   <v>       0.37500000       0.37500000       0.37500000 </v>
   <v>       0.12500000      -0.37500000       0.37500000 </v>
   <v>       0.37500000      -0.37500000       0.37500000 </v>
   <v>       0.12500000      -0.12500000       0.37500000 </v>
   <v>       0.37500000      -0.12500000       0.37500000 </v>
  </varray>
  <varray name="weights" >
   <v>       0.06250000 </v>
   <v>       0.06250000 </v>
   <v>       0.06250000 </v>
   <v>       0.06250000 </v>
   <v>       0.06250000 </v>
   <v>       0.06250000 </v>
   <v>       0.06250000 </v>
   <v>       0.06250000 </v>
   <v>       0.06250000 </v>
   <v>       0.06250000 </v>
   <v>       0.06250000 </v>
   <v>       0.06250000 </v>
   <v>       0.06250000 </v>
   <v>       0.06250000 </v>
   <v>       0.06250000 </v>
   <v>       0.06250000 </v>
  </varray>
  <varray name="tetrahedronlist"  type="int" >
   <v type="int" >        2        1        2        4        9 </v>
   <v type="int" >        2        1        3        4        9 </v>
   <v type="int" >        2        3        4        9       11 </v>
   <v type="int" >        2        2        4        9       10 </v>
   <v type="int" >        2        4        9       10       12 </v>
   <v type="int" >        2        4        9       11       12 </v>
   <v type="int" >        2        2        2        4       10 </v>
   <v type="int" >        2        2        4        4       10 </v>
   <v type="int" >        2        4        4       10       12 </v>
   <v type="int" >        2        2        4       10       10 </v>
   <v type="int" >        2        4       10       10       12 </v>
   <v type="int" >        2        4       10       12       12 </v>
   <v type="int" >        2        1        2        3       10 </v>
   <v type="int" >        2        2        3        4       10 </v>
   <v type="int" >        2        3        4       10       12 </v>
   <v type="int" >        2        1        3        9       10 </v>
   <v type="int" >        2        3        9       10       11 </v>
   <v type="int" >        2        3       10       11       12 </v>
   <v type="int" >        2        1        1        3        9 </v>
   <v type="int" >        2        1        3        3        9 </v>
   <v type="int" >        2        3        3        9       11 </v>
   <v type="int" >        2        1        3        9        9 </v>
   <v type="int" >        2        3        9        9       11 </v>
   <v type="int" >        2        3        9       11       11 </v>
   <v type="int" >        2        3        4        6       11 </v>
   <v type="int" >        2        3        5        6       11 </v>
   <v type="int" >        2        5        6       11       13 </v>
   <v type="int" >        2        4        6       11       12 </v>
   <v type="int" >        2        6       11       12       14 </v>
   <v type="int" >        2        6       11       13       14 </v>
   <v type="int" >        2        4        4        6       12 </v>
   <v type="int" >        2        4        6        6       12 </v>
   <v type="int" >        2        6        6       12       14 </v>
   <v type="int" >        2        4        6       12       12 </v>
   <v type="int" >        2        6       12       12       14 </v>
   <v type="int" >        2        6       12       14       14 </v>
   <v type="int" >        2        3        4        5       12 </v>
   <v type="int" >        2        4        5        6       12 </v>
   <v type="int" >        2        5        6       12       14 </v>
   <v type="int" >        2        3        5       11       12 </v>
   <v type="int" >        2        5       11       12       13 </v>
   <v type="int" >        2        5       12       13       14 </v>
   <v type="int" >        2        3        3        5       11 </v>
   <v type="int" >        2        3        5        5       11 </v>
   <v type="int" >        2        5        5       11       13 </v>
   <v type="int" >        2        3        5       11       11 </v>
   <v type="int" >        2        5       11       11       13 </v>
   <v type="int" >        2        5       11       13       13 </v>
   <v type="int" >        2        5        6        8       13 </v>
   <v type="int" >        2        5        7        8       13 </v>
   <v type="int" >        2        7        8       13       15 </v>
   <v type="int" >        2        6        8       13       14 </v>
   <v type="int" >        2        8       13       14       16 </v>
   <v type="int" >        2        8       13       15       16 </v>
   <v type="int" >        2        6        6        8       14 </v>
   <v type="int" >        2        6        8        8       14 </v>
   <v type="int" >        2        8        8       14       16 </v>
   <v type="int" >        2        6        8       14       14 </v>
   <v type="int" >        2        8       14       14       16 </v>
   <v type="int" >        2        8       14       16       16 </v>
   <v type="int" >        2        5        6        7       14 </v>
   <v type="int" >        2        6        7        8       14 </v>
   <v type="int" >        2        7        8       14       16 </v>
   <v type="int" >        2        5        7       13       14 </v>
   <v type="int" >        2        7       13       14       15 </v>
   <v type="int" >        2        7       14       15       16 </v>
   <v type="int" >        2        5        5        7       13 </v>
   <v type="int" >        2        5        7        7       13 </v>
   <v type="int" >        2        7        7       13       15 </v>
   <v type="int" >        2        5        7       13       13 </v>
   <v type="int" >        2        7       13       13       15 </v>
   <v type="int" >        2        7       13       15       15 </v>
   <v type="int" >        2        2        7        8       15 </v>
   <v type="int" >        2        1        2        7       15 </v>
   <v type="int" >        2        1        2        9       15 </v>
   <v type="int" >        2        2        8       15       16 </v>
   <v type="int" >        2        2       10       15       16 </v>
   <v type="int" >        2        2        9       10       15 </v>
   <v type="int" >        2        2        8        8       16 </v>
   <v type="int" >        2        2        2        8       16 </v>
   <v type="int" >        2        2        2       10       16 </v>
   <v type="int" >        2        2        8       16       16 </v>
   <v type="int" >        2        2       10       16       16 </v>
   <v type="int" >        2        2       10       10       16 </v>
   <v type="int" >        2        1        7        8       16 </v>
   <v type="int" >        2        1        2        8       16 </v>
   <v type="int" >        2        1        2       10       16 </v>
   <v type="int" >        2        1        7       15       16 </v>
   <v type="int" >        2        1        9       15       16 </v>
   <v type="int" >        2        1        9       10       16 </v>
   <v type="int" >        2        1        7        7       15 </v>
   <v type="int" >        2        1        1        7       15 </v>
   <v type="int" >        2        1        1        9       15 </v>
   <v type="int" >        2        1        7       15       15 </v>
   <v type="int" >        2        1        9       15       15 </v>
   <v type="int" >        2        1        9        9       15 </v>
   <v type="int" >        2        9       10       12       15 </v>
   <v type="int" >        2        9       11       12       15 </v>
   <v type="int" >        2       11       12       13       15 </v>
   <v type="int" >        2       10       12       15       16 </v>
   <v type="int" >        2       12       14       15       16 </v>
   <v type="int" >        2       12       13       14       15 </v>
   <v type="int" >        2       10       10       12       16 </v>
   <v type="int" >        2       10       12       12       16 </v>
   <v type="int" >        2       12       12       14       16 </v>
   <v type="int" >        2       10       12       16       16 </v>
   <v type="int" >        2       12       14       16       16 </v>
   <v type="int" >        2       12       14       14       16 </v>
   <v type="int" >        2        9       10       11       16 </v>
   <v type="int" >        2       10       11       12       16 </v>
   <v type="int" >        2       11       12       14       16 </v>
   <v type="int" >        2        9       11       15       16 </v>
   <v type="int" >        2       11       13       15       16 </v>
   <v type="int" >        2       11       13       14       16 </v>
   <v type="int" >        2        9        9       11       15 </v>
   <v type="int" >        2        9       11       11       15 </v>
   <v type="int" >        2       11       11       13       15 </v>
   <v type="int" >        2        9       11       15       15 </v>
   <v type="int" >        2       11       13       15       15 </v>
   <v type="int" >        2       11       13       13       15 </v>
   <v type="int" >        4       11       12       13       14 </v>
   <v type="int" >        4       11       13       13       14 </v>
   <v type="int" >        4       12       13       14       14 </v>
   <v type="int" >        2       12       12       14       14 </v>
   <v type="int" >        4       12       14       14       14 </v>
   <v type="int" >        2       11       11       13       13 </v>
   <v type="int" >        4       11       13       13       13 </v>
   <v type="int" >        4        9       10       15       16 </v>
   <v type="int" >        4        9        9       10       15 </v>
   <v type="int" >        4        9       10       10       16 </v>
   <v type="int" >        2       10       10       16       16 </v>
   <v type="int" >        4       10       10       10       16 </v>
   <v type="int" >        2        9        9       15       15 </v>
   <v type="int" >        4        9        9        9       15 </v>
   <v type="int" >        2        1        6        7        8 </v>
   <v type="int" >        2        1        5        6        7 </v>
   <v type="int" >        2        1        3        5        6 </v>
   <v type="int" >        2        1        2        6        8 </v>
   <v type="int" >        2        1        2        4        6 </v>
   <v type="int" >        2        1        3        4        6 </v>
   <v type="int" >        2        2        6        8        8 </v>
   <v type="int" >        2        2        6        6        8 </v>
   <v type="int" >        2        2        4        6        6 </v>
   <v type="int" >        2        2        2        6        8 </v>
   <v type="int" >        2        2        2        4        6 </v>
   <v type="int" >        2        2        4        4        6 </v>
   <v type="int" >        2        2        5        7        8 </v>
   <v type="int" >        2        2        5        6        8 </v>
   <v type="int" >        2        2        4        5        6 </v>
   <v type="int" >        2        1        2        5        7 </v>
   <v type="int" >        2        1        2        3        5 </v>
   <v type="int" >        2        2        3        4        5 </v>
   <v type="int" >        2        1        5        7        7 </v>
   <v type="int" >        2        1        5        5        7 </v>
   <v type="int" >        2        1        3        5        5 </v>
   <v type="int" >        2        1        1        5        7 </v>
   <v type="int" >        2        1        1        3        5 </v>
   <v type="int" >        2        1        3        3        5 </v>
   <v type="int" >        4        3        4        5        6 </v>
   <v type="int" >        4        3        3        4        5 </v>
   <v type="int" >        4        3        4        4        6 </v>
   <v type="int" >        2        4        4        6        6 </v>
   <v type="int" >        4        4        4        4        6 </v>
   <v type="int" >        2        3        3        5        5 </v>
   <v type="int" >        4        3        3        3        5 </v>
   <v type="int" >        4        1        2        7        8 </v>
   <v type="int" >        4        1        7        7        8 </v>
   <v type="int" >        4        2        7        8        8 </v>
   <v type="int" >        2        2        2        8        8 </v>
   <v type="int" >        4        2        8        8        8 </v>
   <v type="int" >        2        1        1        7        7 </v>
   <v type="int" >        4        1        7        7        7 </v>
  </varray>
  <i name="volumeweight">      0.00260417 </i>
 </kpoints>
 <parameters>
  <separator name="general" >
   <i type="string" name="SYSTEM">RubyVaspy :: B O Zn Tb</i>
   <i type="logical" name="LCOMPAT"> F  </i>
  </separator>
  <separator name="electronic" >
   <i type="string" name="PREC">accura</i>
   <i name="ENMAX">    520.00000000</i>
   <i name="ENAUG">    605.39200000</i>
   <i name="EDIFF">      0.00000200</i>
   <i type="int" name="IALGO">    68</i>
   <i type="int" name="IWAVPR">    11</i>
   <i type="int" name="NBANDS">   259</i>
   <i name="NELECT">    384.00000000</i>
   <i type="int" name="TURBO">     0</i>
   <i type="int" name="IRESTART">     0</i>
   <i type="int" name="NREBOOT">     0</i>
   <i type="int" name="NMIN">     0</i>
   <i name="EREF">      0.00000000</i>
   <separator name="electronic smearing" >
    <i type="int" name="ISMEAR">    -5</i>
    <i name="SIGMA">      0.05000000</i>
    <i name="KSPACING">      0.50000000</i>
    <i type="logical" name="KGAMMA"> T  </i>
   </separator>
   <separator name="electronic projectors" >
    <i type="logical" name="LREAL"> T  </i>
    <v name="ROPT">     -0.00025000     -0.00025000     -0.00025000     -0.00025000</v>
    <i type="int" name="LMAXPAW">  -100</i>
    <i type="int" name="LMAXMIX">     2</i>
   </separator>
   <separator name="electronic startup" >
    <i type="int" name="ISTART">     1</i>
    <i type="int" name="ICHARG">     1</i>
    <i type="int" name="INIWAV">     1</i>
   </separator>
   <separator name="electronic spin" >
    <i type="int" name="ISPIN">     2</i>
    <i type="logical" name="LNONCOLLINEAR"> F  </i>
    <v name="MAGMOM">      0.60000000      0.60000000      0.60000000      0.60000000      0.60000000      0.60000000      0.60000000      0.60000000      0.60000000      0.60000000      0.60000000      0.60000000      0.60000000      0.60000000      0.60000000      0.60000000      0.60000000      0.60000000      0.60000000      0.60000000
      0.60000000      0.60000000      0.60000000      0.60000000      0.60000000      0.60000000      0.60000000      0.60000000      0.60000000      0.60000000      0.60000000      0.60000000      0.60000000      0.60000000      0.60000000      0.60000000      0.60000000      0.60000000      0.60000000      0.60000000
      0.60000000      0.60000000      0.60000000      0.60000000      0.60000000      0.60000000      0.60000000      0.60000000      0.60000000      0.60000000      0.60000000      0.60000000      0.60000000      0.60000000      0.60000000      0.60000000      0.60000000      0.60000000      0.60000000      0.60000000
      5.00000000      5.00000000      5.00000000      5.00000000      0.60000000      0.60000000      0.60000000      0.60000000</v>
    <i name="NUPDOWN">     -1.00000000</i>
    <i type="logical" name="LSORBIT"> F  </i>
    <v name="SAXIS">      0.00000000      0.00000000      1.00000000</v>
    <i type="logical" name="LSPIRAL"> F  </i>
    <v name="QSPIRAL">      0.00000000      0.00000000      0.00000000</v>
    <i type="logical" name="LZEROZ"> F  </i>
   </separator>
   <separator name="electronic exchange-correlation" >
    <i type="logical" name="LASPH"> F  </i>
    <i type="logical" name="LMETAGGA"> F  </i>
   </separator>
   <separator name="electronic convergence" >
    <i type="int" name="NELM">   100</i>
    <i type="int" name="NELMDL">     0</i>
    <i type="int" name="NELMIN">     3</i>
    <i name="ENINI">    520.00000000</i>
    <separator name="electronic convergence detail" >
     <i type="logical" name="LDIAG"> T  </i>
     <i type="logical" name="LSUBROT"> T  </i>
     <i name="WEIMIN">      0.00100000</i>
     <i name="EBREAK">      0.00000000</i>
     <i name="DEPER">      0.30000000</i>
     <i type="int" name="NRMM">     4</i>
     <i name="TIME">      0.40000000</i>
    </separator>
   </separator>
   <separator name="electronic mixer" >
    <i name="AMIX">      0.40000000</i>
    <i name="BMIX">      1.00000000</i>
    <i name="AMIN">      0.10000000</i>
    <i name="AMIX_MAG">      1.60000000</i>
    <i name="BMIX_MAG">      1.00000000</i>
    <separator name="electronic mixer details" >
     <i type="int" name="IMIX">     4</i>
     <i type="int" name="MAXMIX">   -45</i>
     <i name="WC">    100.00000000</i>
     <i type="int" name="INIMIX">     1</i>
     <i type="int" name="MIXPRE">     1</i>
     <i type="int" name="MREMOVE">     5</i>
    </separator>
   </separator>
   <separator name="electronic dipolcorrection" >
    <i type="logical" name="LDIPOL"> F  </i>
    <i type="logical" name="LMONO"> F  </i>
    <i type="int" name="IDIPOL">     0</i>
    <i name="EPSILON">      1.00000000</i>
    <v name="DIPOL">   -100.00000000   -100.00000000   -100.00000000</v>
    <i name="EFIELD">      0.00000000</i>
   </separator>
  </separator>
  <separator name="grids" >
   <i type="int" name="NGX">    60</i>
   <i type="int" name="NGY">    64</i>
   <i type="int" name="NGZ">    70</i>
   <i type="int" name="NGXF">   120</i>
   <i type="int" name="NGYF">   128</i>
   <i type="int" name="NGZF">   140</i>
   <i type="logical" name="ADDGRID"> F  </i>
  </separator>
  <separator name="ionic" >
   <i type="int" name="NSW">   200</i>
   <i type="int" name="IBRION">     1</i>
   <i type="int" name="ISIF">     3</i>
   <i name="PSTRESS">      0.00000000</i>
   <i name="EDIFFG">      0.00002000</i>
   <i type="int" name="NFREE">     0</i>
   <i name="POTIM">      0.50000000</i>
   <i name="SMASS">     -3.00000000</i>
  </separator>
  <separator name="ionic md" >
   <i name="TEBEG">      0.00010000</i>
   <i name="TEEND">      0.00010000</i>
   <i type="int" name="NBLOCK">     1</i>
   <i type="int" name="KBLOCK">   200</i>
   <i type="int" name="NPACO">   256</i>
   <i name="APACO">     16.00000000</i>
  </separator>
  <separator name="symmetry" >
   <i type="int" name="ISYM">     2</i>
   <i name="SYMPREC">      0.00001000</i>
  </separator>
  <separator name="dos" >
   <i type="logical" name="LORBIT"> F  </i>
   <v name="RWIGS">     -1.00000000     -1.00000000     -1.00000000     -1.00000000</v>
   <i type="int" name="NEDOS">   301</i>
   <i name="EMIN">     10.00000000</i>
   <i name="EMAX">    -10.00000000</i>
   <i name="EFERMI">      0.00000000</i>
  </separator>
  <separator name="writing" >
   <i type="int" name="NWRITE">     2</i>
   <i type="logical" name="LWAVE"> T  </i>
   <i type="logical" name="LCHARG"> T  </i>
   <i type="logical" name="LPARD"> F  </i>
   <i type="logical" name="LVTOT"> F  </i>
   <i type="logical" name="LVHAR"> F  </i>
   <i type="logical" name="LELF"> F  </i>
   <i type="logical" name="LOPTICS"> F  </i>
   <v name="STM">      0.00000000      0.00000000      0.00000000      0.00000000      0.00000000</v>
  </separator>
  <separator name="performance" >
   <i type="int" name="NPAR">     1</i>
   <i type="int" name="NSIM">     4</i>
   <i type="int" name="NBLK">    -1</i>
   <i type="logical" name="LPLANE"> T  </i>
   <i type="logical" name="LSCALAPACK"> T  </i>
   <i type="logical" name="LSCAAWARE"> F  </i>
   <i type="logical" name="LSCALU"> F  </i>
   <i type="logical" name="LASYNC"> F  </i>
   <i type="logical" name="LORBITALREAL"> F  </i>
  </separator>
  <separator name="miscellaneous" >
   <i type="int" name="IDIOT">     3</i>
   <i type="logical" name="LMUSIC"> F  </i>
   <v name="POMASS">     10.81100000     16.00000000     65.39000000    158.92500000</v>
   <v name="DARWINR">      0.00000000      0.00000000      0.00000000      0.00000000</v>
   <v name="DARWINV">      1.00000000      1.00000000      1.00000000      1.00000000</v>
   <i type="logical" name="LCORR"> T  </i>
  </separator>
  <i type="logical" name="GGA_COMPAT"> T  </i>
  <i type="logical" name="LBERRY"> F  </i>
  <i type="int" name="ICORELEVEL">     0</i>
  <i type="logical" name="LDAU"> F  </i>
  <i type="int" name="I_CONSTRAINED_M">     0</i>
  <separator name="electronic exchange-correlation" >
   <i type="string" name="GGA">--</i>
   <i type="int" name="VOSKOWN">     0</i>
   <i type="logical" name="LHFCALC"> F  </i>
   <i type="string" name="PRECFOCK"></i>
   <i type="logical" name="LHFONE"> F  </i>
   <i type="logical" name="LRHFCALC"> F  </i>
   <i type="logical" name="LTHOMAS"> F  </i>
   <i type="logical" name="LMODELHF"> F  </i>
   <i name="ENCUT4O">     -1.00000000</i>
   <i type="int" name="EXXOEP">     0</i>
   <i type="int" name="FOURORBIT">     0</i>
   <i name="AEXX">      0.00000000</i>
   <i name="HFALPHA">      0.00000000</i>
   <i name="ALDAX">      1.00000000</i>
   <i name="AGGAX">      1.00000000</i>
   <i name="ALDAC">      1.00000000</i>
   <i name="AGGAC">      1.00000000</i>
   <i type="int" name="NKREDX">     1</i>
   <i type="int" name="NKREDY">     1</i>
   <i type="int" name="NKREDZ">     1</i>
   <i type="logical" name="SHIFTRED"> F  </i>
   <i type="logical" name="ODDONLY"> F  </i>
   <i type="logical" name="EVENONLY"> F  </i>
   <i type="int" name="LMAXFOCK">     0</i>
   <i type="int" name="NMAXFOCKAE">     0</i>
   <i type="logical" name="LFOCKAEDFT"> F  </i>
   <i name="HFSCREEN">      0.00000000</i>
   <i name="HFSCREENC">      0.00000000</i>
  </separator>
  <separator name="model GW" >
   <i type="int" name="MODEL_GW">     0</i>
   <i name="MODEL_EPS0">      5.52844274</i>
   <i name="MODEL_ALPHA">      1.00000000</i>
  </separator>
  <separator name="linear response parameters" >
   <i type="logical" name="LEPSILON"> F  </i>
   <i type="logical" name="LRPA"> F  </i>
   <i type="logical" name="LNABLA"> F  </i>
   <i type="logical" name="LVEL"> F  </i>
   <i type="int" name="KINTER">     0</i>
   <i name="CSHIFT">      0.10000000</i>
   <i name="OMEGAMAX">     -1.00000000</i>
  </separator>
  <separator name="orbital magnetization" >
   <i type="logical" name="ORBITALMAG"> F  </i>
   <i type="logical" name="LMAGBLOCH"> F  </i>
   <i type="logical" name="LCHIMAG"> F  </i>
   <i type="logical" name="LGAUGE"> T  </i>
   <i type="int" name="MAGATOM">     0</i>
   <v name="MAGDIPOL">      0.00000000      0.00000000      0.00000000</v>
   <v name="AVECCONST">      0.00000000      0.00000000      0.00000000</v>
  </separator>
  <separator name="response functions" >
   <i type="logical" name="LRPA"> T  </i>
   <i type="logical" name="LTCTE"> F  </i>
   <i type="logical" name="LTETE"> F  </i>
   <i type="logical" name="L2ORDER"> F  </i>
   <i type="logical" name="LUSEW"> F  </i>
   <i name="ENCUTGW">     -2.00000000</i>
   <i name="ENCUTGWSOFT">     -2.00000000</i>
   <i name="ENCUTLF">     -1.00000000</i>
   <i type="int" name="LMAXMP2">    -1</i>
   <i name="SCISSOR">      0.00000000</i>
   <i type="int" name="NOMEGA">     0</i>
   <i type="int" name="NOMEGAR">     0</i>
   <i type="int" name="NBANDSGW">    -1</i>
   <i type="int" name="NBANDSO">    -1</i>
   <i type="int" name="NBANDSV">    -1</i>
   <i type="int" name="NELM">   100</i>
   <i type="int" name="DIM">     3</i>
   <i type="int" name="ANTIRES">     0</i>
   <i name="OMEGAMAX">    -30.00000000</i>
   <i name="OMEGATL">   -200.00000000</i>
   <i type="int" name="OMEGAGRID">     0</i>
   <i name="CSHIFT">     -0.10000000</i>
   <i type="logical" name="SELFENERGY"> F  </i>
   <i type="logical" name="LSPECTRAL"> F  </i>
   <i type="logical" name="ODDONLYGW"> F  </i>
   <i type="logical" name="EVENONLYGW"> F  </i>
   <i type="int" name="NKREDLFX">     1</i>
   <i type="int" name="NKREDLFY">     1</i>
   <i type="int" name="NKREDLFZ">     1</i>
   <i type="int" name="MAXMEM">  1800</i>
   <i type="int" name="TELESCOPE">     0</i>
  </separator>
 </parameters>
 <atominfo>
  <atoms>      68 </atoms>
  <types>       4 </types>
  <array name="atoms" >
   <dimension dim="1">ion</dimension>
   <field type="string">element</field>
   <field type="int">atomtype</field>
   <set>
    <rc><c>B </c><c>   1</c></rc>
    <rc><c>B </c><c>   1</c></rc>
    <rc><c>B </c><c>   1</c></rc>
    <rc><c>B </c><c>   1</c></rc>
    <rc><c>B </c><c>   1</c></rc>
    <rc><c>B </c><c>   1</c></rc>
    <rc><c>B </c><c>   1</c></rc>
    <rc><c>B </c><c>   1</c></rc>
    <rc><c>B </c><c>   1</c></rc>
    <rc><c>B </c><c>   1</c></rc>
    <rc><c>B </c><c>   1</c></rc>
    <rc><c>B </c><c>   1</c></rc>
    <rc><c>B </c><c>   1</c></rc>
    <rc><c>B </c><c>   1</c></rc>
    <rc><c>B </c><c>   1</c></rc>
    <rc><c>B </c><c>   1</c></rc>
    <rc><c>B </c><c>   1</c></rc>
    <rc><c>B </c><c>   1</c></rc>
    <rc><c>B </c><c>   1</c></rc>
    <rc><c>B </c><c>   1</c></rc>
    <rc><c>O </c><c>   2</c></rc>
    <rc><c>O </c><c>   2</c></rc>
    <rc><c>O </c><c>   2</c></rc>
    <rc><c>O </c><c>   2</c></rc>
    <rc><c>O </c><c>   2</c></rc>
    <rc><c>O </c><c>   2</c></rc>
    <rc><c>O </c><c>   2</c></rc>
    <rc><c>O </c><c>   2</c></rc>
    <rc><c>O </c><c>   2</c></rc>
    <rc><c>O </c><c>   2</c></rc>
    <rc><c>O </c><c>   2</c></rc>
    <rc><c>O </c><c>   2</c></rc>
    <rc><c>O </c><c>   2</c></rc>
    <rc><c>O </c><c>   2</c></rc>
    <rc><c>O </c><c>   2</c></rc>
    <rc><c>O </c><c>   2</c></rc>
    <rc><c>O </c><c>   2</c></rc>
    <rc><c>O </c><c>   2</c></rc>
    <rc><c>O </c><c>   2</c></rc>
    <rc><c>O </c><c>   2</c></rc>
    <rc><c>O </c><c>   2</c></rc>
    <rc><c>O </c><c>   2</c></rc>
    <rc><c>O </c><c>   2</c></rc>
    <rc><c>O </c><c>   2</c></rc>
    <rc><c>O </c><c>   2</c></rc>
    <rc><c>O </c><c>   2</c></rc>
    <rc><c>O </c><c>   2</c></rc>
    <rc><c>O </c><c>   2</c></rc>
    <rc><c>O </c><c>   2</c></rc>
    <rc><c>O </c><c>   2</c></rc>
    <rc><c>O </c><c>   2</c></rc>
    <rc><c>O </c><c>   2</c></rc>
    <rc><c>O </c><c>   2</c></rc>
    <rc><c>O </c><c>   2</c></rc>
    <rc><c>O </c><c>   2</c></rc>
    <rc><c>O </c><c>   2</c></rc>
    <rc><c>O </c><c>   2</c></rc>
    <rc><c>O </c><c>   2</c></rc>
    <rc><c>O </c><c>   2</c></rc>
    <rc><c>O </c><c>   2</c></rc>
    <rc><c>Zn</c><c>   3</c></rc>
    <rc><c>Zn</c><c>   3</c></rc>
    <rc><c>Zn</c><c>   3</c></rc>
    <rc><c>Zn</c><c>   3</c></rc>
    <rc><c>Tb</c><c>   4</c></rc>
    <rc><c>Tb</c><c>   4</c></rc>
    <rc><c>Tb</c><c>   4</c></rc>
    <rc><c>Tb</c><c>   4</c></rc>
   </set>
  </array>
  <array name="atomtypes" >
   <dimension dim="1">type</dimension>
   <field type="int">atomspertype</field>
   <field type="string">element</field>
   <field>mass</field>
   <field>valence</field>
   <field type="string">pseudopotential</field>
   <set>
    <rc><c>  20</c><c>B </c><c>     10.81100000</c><c>      3.00000000</c><c> PAW_PBE B 06Sep2000                    </c></rc>
    <rc><c>  40</c><c>O </c><c>     16.00000000</c><c>      6.00000000</c><c> PAW_PBE O 08Apr2002                    </c></rc>
    <rc><c>   4</c><c>Zn</c><c>     65.39000000</c><c>     12.00000000</c><c> PAW_PBE Zn 06Sep2000                   </c></rc>
    <rc><c>   4</c><c>Tb</c><c>    158.92500000</c><c>      9.00000000</c><c> PAW_PBE Tb_3 06Sep2000                 </c></rc>
   </set>
  </array>
 </atominfo>
 <structure name="initialpos" >
  <crystal>
   <varray name="basis" >
    <v>       7.68495356       0.00000000       0.00000000 </v>
    <v>       0.00000000       8.64261204      -0.51996771 </v>
    <v>       0.00000000       0.01675954       9.43252119 </v>
   </varray>
   <i name="volume">    626.55684331 </i>
   <varray name="rec_basis" >
    <v>       0.13012440       0.00000000       0.00000000 </v>
    <v>       0.00000000       0.11569339      -0.00020556 </v>
    <v>       0.00000000       0.00637760       0.10600486 </v>
   </varray>
  </crystal>
  <varray name="positions" >
   <v>       0.42627325       0.08255740       0.74555340 </v>
   <v>       0.81330641       0.56524175       0.08772823 </v>
   <v>       0.31330641       0.93475825       0.41227177 </v>
   <v>       0.18669359       0.43475825       0.91227177 </v>
   <v>       0.68669359       0.06524175       0.58772823 </v>
   <v>       0.10291508       0.65897807       0.50895352 </v>
   <v>       0.60291508       0.84102193       0.99104648 </v>
   <v>       0.89708492       0.34102193       0.49104648 </v>
   <v>       0.39708492       0.15897807       0.00895352 </v>
   <v>       0.92627325       0.41744260       0.75444660 </v>
   <v>       0.57372675       0.91744260       0.25444660 </v>
   <v>       0.07372675       0.58255740       0.24555340 </v>
   <v>       0.67530163       0.51730881       0.60308468 </v>
   <v>       0.17530163       0.98269119       0.89691532 </v>
   <v>       0.32469837       0.48269119       0.39691532 </v>
   <v>       0.82469837       0.01730881       0.10308468 </v>
   <v>       0.46924837       0.27767637       0.55718719 </v>
   <v>       0.96924837       0.22232363       0.94281281 </v>
   <v>       0.53075163       0.72232363       0.44281281 </v>
   <v>       0.03075163       0.77767637       0.05718719 </v>
   <v>       0.79703893       0.53738562       0.72489611 </v>
   <v>       0.34620679       0.50777214       0.93006374 </v>
   <v>       0.84620679       0.99222786       0.56993626 </v>
   <v>       0.65379321       0.49222786       0.06993626 </v>
   <v>       0.15379321       0.00777214       0.43006374 </v>
   <v>       0.55535721       0.75744481       0.87208793 </v>
   <v>       0.05535721       0.74255519       0.62791207 </v>
   <v>       0.44464279       0.24255519       0.12791207 </v>
   <v>       0.29703893       0.96261438       0.77510389 </v>
   <v>       0.94464279       0.25744481       0.37208793 </v>
   <v>       0.70296107       0.03738562       0.22489611 </v>
   <v>       0.20296107       0.46261438       0.27510389 </v>
   <v>       0.46787546       0.18176942       0.87772991 </v>
   <v>       0.96787546       0.31823058       0.62227009 </v>
   <v>       0.53212454       0.81823058       0.12227009 </v>
   <v>       0.03212454       0.68176942       0.37772991 </v>
   <v>       0.59151825       0.01088201       0.69827320 </v>
   <v>       0.09151825       0.48911799       0.80172680 </v>
   <v>       0.40848175       0.98911799       0.30172680 </v>
   <v>       0.90848175       0.51088201       0.19827320 </v>
   <v>       0.35279274       0.18239629       0.63936751 </v>
   <v>       0.85279274       0.31760371       0.86063249 </v>
   <v>       0.64720726       0.81760371       0.36063249 </v>
   <v>       0.14720726       0.68239629       0.13936751 </v>
   <v>       0.53157784       0.41449365       0.65008777 </v>
   <v>       0.03157784       0.08550635       0.84991223 </v>
   <v>       0.46842216       0.58550635       0.34991223 </v>
   <v>       0.96842216       0.91449365       0.15008777 </v>
   <v>       0.60765497       0.67397956       0.57883907 </v>
   <v>       0.10765497       0.82602044       0.92116093 </v>
   <v>       0.39234503       0.32602044       0.42116093 </v>
   <v>       0.87510984       0.68148645       0.00930054 </v>
   <v>       0.76742046       0.45203232       0.47686567 </v>
   <v>       0.26742046       0.04796768       0.02313433 </v>
   <v>       0.23257954       0.54796768       0.52313433 </v>
   <v>       0.73257954       0.95203232       0.97686567 </v>
   <v>       0.62489016       0.18148645       0.50930054 </v>
   <v>       0.12489016       0.31851355       0.99069946 </v>
   <v>       0.37510984       0.81851355       0.49069946 </v>
   <v>       0.89234503       0.17397956       0.07883907 </v>
   <v>       0.59044928       0.39191430       0.87317558 </v>
   <v>       0.09044928       0.10808570       0.62682442 </v>
   <v>       0.40955072       0.60808570       0.12682442 </v>
   <v>       0.90955072       0.89191430       0.37317558 </v>
   <v>       0.81635722       0.81380267       0.75881839 </v>
   <v>       0.31635722       0.68619733       0.74118161 </v>
   <v>       0.18364278       0.18619733       0.24118161 </v>
   <v>       0.68364278       0.31380267       0.25881839 </v>
  </varray>
 </structure>
 <calculation>
  <scstep>
   <time name="dav">  109.25  109.25</time>
   <time name="total">  114.45  114.47</time>
   <energy>
    <i name="alphaZ">   1623.85263062 </i>
    <i name="ewald"> -21035.96550724 </i>
    <i name="hartreedc">  -8123.62275913 </i>
    <i name="XCdc">   1520.82212020 </i>
    <i name="pawpsdc">  20427.10320538 </i>
    <i name="pawaedc"> -21070.07722328 </i>
    <i name="eentropy">      0.00000000 </i>
    <i name="bandstr">  -2145.12919629 </i>
    <i name="atom">  28276.34490735 </i>
    <i name="e_fr_energy">   -526.67182239 </i>
    <i name="e_wo_entrp">   -526.67182239 </i>
    <i name="e_0_energy">   -526.67182239 </i>
   </energy>
  </scstep>
  <scstep>
   <time name="diag">   16.97   16.97</time>
   <time name="diis">   67.00   67.00</time>
   <time name="orth">    2.81    2.81</time>
   <time name="total">   92.02   92.02</time>
   <energy>
    <i name="e_fr_energy">   -526.66740299 </i>
    <i name="e_wo_entrp">   -526.66740299 </i>
    <i name="e_0_energy">   -526.66740299 </i>
   </energy>
  </scstep>
  <scstep>
   <time name="diag">   17.02   17.02</time>
   <time name="diis">   53.13   53.12</time>
   <time name="orth">    2.81    2.81</time>
   <time name="total">   78.17   78.18</time>
   <energy>
    <i name="e_fr_energy">   -526.66740912 </i>
    <i name="e_wo_entrp">   -526.66740912 </i>
    <i name="e_0_energy">   -526.66740912 </i>
   </energy>
  </scstep>
  <scstep>
   <time name="diag">   17.01   17.01</time>
   <time name="diis">   44.14   44.14</time>
   <time name="orth">    2.82    2.81</time>
   <time name="total">   69.18   69.20</time>
   <energy>
    <i name="e_fr_energy">   -526.66741164 </i>
    <i name="e_wo_entrp">   -526.66741164 </i>
    <i name="e_0_energy">   -526.66741164 </i>
   </energy>
  </scstep>
  <scstep>
   <time name="diag">   16.99   17.00</time>
   <time name="diis">   42.50   42.50</time>
   <time name="orth">    2.81    2.81</time>
   <time name="total">   63.04   63.05</time>
   <energy>
    <i name="alphaZ">   1623.85263062 </i>
    <i name="ewald"> -21035.96550724 </i>
    <i name="hartreedc">  -8123.63453094 </i>
    <i name="XCdc">   1520.82296156 </i>
    <i name="pawpsdc">  20424.65205352 </i>
    <i name="pawaedc"> -21067.60365354 </i>
    <i name="eentropy">      0.00000000 </i>
    <i name="bandstr">  -2145.13627302 </i>
    <i name="atom">  28276.34490735 </i>
    <i name="e_fr_energy">   -526.66741169 </i>
    <i name="e_wo_entrp">   -526.66741169 </i>
    <i name="e_0_energy">   -526.66741169 </i>
   </energy>
  </scstep>
  <v type="logical" name="LVDW"> F  </v>
  <structure>
   <crystal>
    <varray name="basis" >
     <v>       7.68495356       0.00000000       0.00000000 </v>
     <v>       0.00000000       8.64261204      -0.51996771 </v>
     <v>       0.00000000       0.01675954       9.43252119 </v>
    </varray>
    <i name="volume">    626.55684331 </i>
    <varray name="rec_basis" >
     <v>       0.13012440       0.00000000       0.00000000 </v>
     <v>       0.00000000       0.11569339      -0.00020556 </v>
     <v>       0.00000000       0.00637760       0.10600486 </v>
    </varray>
   </crystal>
   <varray name="positions" >
    <v>       0.42627325       0.08255740       0.74555340 </v>
    <v>       0.81330641       0.56524175       0.08772823 </v>
    <v>       0.31330641       0.93475825       0.41227177 </v>
    <v>       0.18669359       0.43475825       0.91227177 </v>
    <v>       0.68669359       0.06524175       0.58772823 </v>
    <v>       0.10291508       0.65897807       0.50895352 </v>
    <v>       0.60291508       0.84102193       0.99104648 </v>
    <v>       0.89708492       0.34102193       0.49104648 </v>
    <v>       0.39708492       0.15897807       0.00895352 </v>
    <v>       0.92627325       0.41744260       0.75444660 </v>
    <v>       0.57372675       0.91744260       0.25444660 </v>
    <v>       0.07372675       0.58255740       0.24555340 </v>
    <v>       0.67530163       0.51730881       0.60308468 </v>
    <v>       0.17530163       0.98269119       0.89691532 </v>
    <v>       0.32469837       0.48269119       0.39691532 </v>
    <v>       0.82469837       0.01730881       0.10308468 </v>
    <v>       0.46924837       0.27767637       0.55718719 </v>
    <v>       0.96924837       0.22232363       0.94281281 </v>
    <v>       0.53075163       0.72232363       0.44281281 </v>
    <v>       0.03075163       0.77767637       0.05718719 </v>
    <v>       0.79703893       0.53738562       0.72489611 </v>
    <v>       0.34620679       0.50777214       0.93006374 </v>
    <v>       0.84620679       0.99222786       0.56993626 </v>
    <v>       0.65379321       0.49222786       0.06993626 </v>
    <v>       0.15379321       0.00777214       0.43006374 </v>
    <v>       0.55535721       0.75744481       0.87208793 </v>
    <v>       0.05535721       0.74255519       0.62791207 </v>
    <v>       0.44464279       0.24255519       0.12791207 </v>
    <v>       0.29703893       0.96261438       0.77510389 </v>
    <v>       0.94464279       0.25744481       0.37208793 </v>
    <v>       0.70296107       0.03738562       0.22489611 </v>
    <v>       0.20296107       0.46261438       0.27510389 </v>
    <v>       0.46787546       0.18176942       0.87772991 </v>
    <v>       0.96787546       0.31823058       0.62227009 </v>
    <v>       0.53212454       0.81823058       0.12227009 </v>
    <v>       0.03212454       0.68176942       0.37772991 </v>
    <v>       0.59151825       0.01088201       0.69827320 </v>
    <v>       0.09151825       0.48911799       0.80172680 </v>
    <v>       0.40848175       0.98911799       0.30172680 </v>
    <v>       0.90848175       0.51088201       0.19827320 </v>
    <v>       0.35279274       0.18239629       0.63936751 </v>
    <v>       0.85279274       0.31760371       0.86063249 </v>
    <v>       0.64720726       0.81760371       0.36063249 </v>
    <v>       0.14720726       0.68239629       0.13936751 </v>
    <v>       0.53157784       0.41449365       0.65008777 </v>
    <v>       0.03157784       0.08550635       0.84991223 </v>
    <v>       0.46842216       0.58550635       0.34991223 </v>
    <v>       0.96842216       0.91449365       0.15008777 </v>
    <v>       0.60765497       0.67397956       0.57883907 </v>
    <v>       0.10765497       0.82602044       0.92116093 </v>
    <v>       0.39234503       0.32602044       0.42116093 </v>
    <v>       0.87510984       0.68148645       0.00930054 </v>
    <v>       0.76742046       0.45203232       0.47686567 </v>
    <v>       0.26742046       0.04796768       0.02313433 </v>
    <v>       0.23257954       0.54796768       0.52313433 </v>
    <v>       0.73257954       0.95203232       0.97686567 </v>
    <v>       0.62489016       0.18148645       0.50930054 </v>
    <v>       0.12489016       0.31851355       0.99069946 </v>
    <v>       0.37510984       0.81851355       0.49069946 </v>
    <v>       0.89234503       0.17397956       0.07883907 </v>
    <v>       0.59044928       0.39191430       0.87317558 </v>
    <v>       0.09044928       0.10808570       0.62682442 </v>
    <v>       0.40955072       0.60808570       0.12682442 </v>
    <v>       0.90955072       0.89191430       0.37317558 </v>
    <v>       0.81635722       0.81380267       0.75881839 </v>
    <v>       0.31635722       0.68619733       0.74118161 </v>
    <v>       0.18364278       0.18619733       0.24118161 </v>
    <v>       0.68364278       0.31380267       0.25881839 </v>
   </varray>
  </structure>
  <varray name="forces" >
   <v>       0.00235046       0.00137271       0.00250371 </v>
   <v>      -0.00270841      -0.00150642      -0.00017402 </v>
   <v>      -0.00270841       0.00150642       0.00017402 </v>
   <v>       0.00270841       0.00150642       0.00017402 </v>
   <v>       0.00270841      -0.00150642      -0.00017402 </v>
   <v>      -0.00030186       0.00542440       0.00430822 </v>
   <v>      -0.00030186      -0.00542440      -0.00430822 </v>
   <v>       0.00030186      -0.00542440      -0.00430822 </v>
   <v>       0.00030186       0.00542440       0.00430822 </v>
   <v>       0.00235046      -0.00137271      -0.00250371 </v>
   <v>      -0.00235046      -0.00137271      -0.00250371 </v>
   <v>      -0.00235046       0.00137271       0.00250371 </v>
   <v>       0.00244625      -0.00005402       0.00142469 </v>
   <v>       0.00244625       0.00005402      -0.00142469 </v>
   <v>      -0.00244625       0.00005402      -0.00142469 </v>
   <v>      -0.00244625      -0.00005402       0.00142469 </v>
   <v>      -0.00117138      -0.00040395      -0.00033999 </v>
   <v>      -0.00117138       0.00040395       0.00033999 </v>
   <v>       0.00117138       0.00040395       0.00033999 </v>
   <v>       0.00117138      -0.00040395      -0.00033999 </v>
   <v>       0.00334487       0.00042982      -0.00137535 </v>
   <v>      -0.00116540       0.00099286      -0.00017062 </v>
   <v>      -0.00116540      -0.00099286       0.00017062 </v>
   <v>       0.00116540      -0.00099286       0.00017062 </v>
   <v>       0.00116540       0.00099286      -0.00017062 </v>
   <v>       0.00244359      -0.00125321       0.00083369 </v>
   <v>       0.00244359       0.00125321      -0.00083369 </v>
   <v>      -0.00244359       0.00125321      -0.00083369 </v>
   <v>       0.00334487      -0.00042982       0.00137535 </v>
   <v>      -0.00244359      -0.00125321       0.00083369 </v>
   <v>      -0.00334487       0.00042982      -0.00137535 </v>
   <v>      -0.00334487      -0.00042982       0.00137535 </v>
   <v>       0.00087311      -0.00028028      -0.00082247 </v>
   <v>       0.00087311       0.00028028       0.00082247 </v>
   <v>      -0.00087311       0.00028028       0.00082247 </v>
   <v>      -0.00087311      -0.00028028      -0.00082247 </v>
   <v>      -0.00350566      -0.00189667       0.00382577 </v>
   <v>      -0.00350566       0.00189667      -0.00382577 </v>
   <v>       0.00350566       0.00189667      -0.00382577 </v>
   <v>       0.00350566      -0.00189667       0.00382577 </v>
   <v>       0.00021009      -0.00001686      -0.00026465 </v>
   <v>       0.00021009       0.00001686       0.00026465 </v>
   <v>      -0.00021009       0.00001686       0.00026465 </v>
   <v>      -0.00021009      -0.00001686      -0.00026465 </v>
   <v>       0.00118822       0.00143263      -0.00028406 </v>
   <v>       0.00118822      -0.00143263       0.00028406 </v>
   <v>      -0.00118822      -0.00143263       0.00028406 </v>
   <v>      -0.00118822       0.00143263      -0.00028406 </v>
   <v>       0.00302196       0.00108640      -0.00085761 </v>
   <v>       0.00302196      -0.00108640       0.00085761 </v>
   <v>      -0.00302196      -0.00108640       0.00085761 </v>
   <v>       0.00217576       0.00166817      -0.00053537 </v>
   <v>      -0.00407444      -0.00124468      -0.00001219 </v>
   <v>      -0.00407444       0.00124468       0.00001219 </v>
   <v>       0.00407444       0.00124468       0.00001219 </v>
   <v>       0.00407444      -0.00124468      -0.00001219 </v>
   <v>      -0.00217576       0.00166817      -0.00053537 </v>
   <v>      -0.00217576      -0.00166817       0.00053537 </v>
   <v>       0.00217576      -0.00166817       0.00053537 </v>
   <v>      -0.00302196       0.00108640      -0.00085761 </v>
   <v>       0.00058015       0.00256309      -0.00133595 </v>
   <v>       0.00058015      -0.00256309       0.00133595 </v>
   <v>      -0.00058015      -0.00256309       0.00133595 </v>
   <v>      -0.00058015       0.00256309      -0.00133595 </v>
   <v>       0.00303294       0.00354280      -0.00018970 </v>
   <v>       0.00303294      -0.00354280       0.00018970 </v>
   <v>      -0.00303294      -0.00354280       0.00018970 </v>
   <v>      -0.00303294       0.00354280      -0.00018970 </v>
  </varray>
  <varray name="stress" >
   <v>       0.24552044       0.00000000       0.00000000 </v>
   <v>       0.00000000      -0.03343324       0.05160322 </v>
   <v>       0.00000000       0.05160088      -0.09143389 </v>
  </varray>
  <energy>
   <i name="e_fr_energy">   -526.66741169 </i>
   <i name="e_wo_entrp">   -526.66741169 </i>
   <i name="e_0_energy">      0.00000000 </i>
  </energy>
  <time name="totalsc">  574.15  574.32</time>
 </calculation>
 <calculation>
  <scstep>
   <time name="dav">  110.19  110.20</time>
   <time name="total">  115.41  115.41</time>
   <energy>
    <i name="alphaZ">   1623.79827890 </i>
    <i name="ewald"> -21035.80133015 </i>
    <i name="hartreedc">  -8123.49019241 </i>
    <i name="XCdc">   1520.80378300 </i>
    <i name="pawpsdc">  20424.65279070 </i>
    <i name="pawaedc"> -21067.60469250 </i>
    <i name="eentropy">      0.00000000 </i>
    <i name="bandstr">  -2145.37096336 </i>
    <i name="atom">  28276.34490735 </i>
    <i name="e_fr_energy">   -526.66741848 </i>
    <i name="e_wo_entrp">   -526.66741848 </i>
    <i name="e_0_energy">   -526.66741848 </i>
   </energy>
  </scstep>
  <scstep>
   <time name="diag">   17.07   17.07</time>
   <time name="diis">   66.82   66.83</time>
   <time name="orth">    2.81    2.81</time>
   <time name="total">   91.93   91.94</time>
   <energy>
    <i name="e_fr_energy">   -526.66742854 </i>
    <i name="e_wo_entrp">   -526.66742854 </i>
    <i name="e_0_energy">   -526.66742854 </i>
   </energy>
  </scstep>
  <scstep>
   <time name="diag">   17.09   17.08</time>
   <time name="diis">   54.83   54.83</time>
   <time name="orth">    2.81    2.81</time>
   <time name="total">   79.95   79.96</time>
   <energy>
    <i name="e_fr_energy">   -526.66742397 </i>
    <i name="e_wo_entrp">   -526.66742397 </i>
    <i name="e_0_energy">   -526.66742397 </i>
   </energy>
  </scstep>
  <scstep>
   <time name="diag">   16.98   16.97</time>
   <time name="diis">   44.19   44.20</time>
   <time name="orth">    2.81    2.81</time>
   <time name="total">   64.72   64.72</time>
   <energy>
    <i name="alphaZ">   1623.79827890 </i>
    <i name="ewald"> -21035.80133015 </i>
    <i name="hartreedc">  -8123.66973142 </i>
    <i name="XCdc">   1520.81533714 </i>
    <i name="pawpsdc">  20424.34428009 </i>
    <i name="pawaedc"> -21067.29064381 </i>
    <i name="eentropy">      0.00000000 </i>
    <i name="bandstr">  -2145.20852113 </i>
    <i name="atom">  28276.34490735 </i>
    <i name="e_fr_energy">   -526.66742303 </i>
    <i name="e_wo_entrp">   -526.66742303 </i>
    <i name="e_0_energy">   -526.66742303 </i>
   </energy>
  </scstep>
  <structure>
   <crystal>
    <varray name="basis" >
     <v>       7.68547704       0.00000000       0.00000000 </v>
     <v>       0.00000000       8.64252443      -0.51983078 </v>
     <v>       0.00000000       0.01689442       9.43228215 </v>
    </varray>
    <i name="volume">    626.57781540 </i>
    <varray name="rec_basis" >
     <v>       0.13011554       0.00000000       0.00000000 </v>
     <v>       0.00000000       0.11569447      -0.00020722 </v>
     <v>       0.00000000       0.00637614       0.10600746 </v>
    </varray>
   </crystal>
   <varray name="positions" >
    <v>       0.42628800       0.08256503       0.74556662 </v>
    <v>       0.81328941       0.56523334       0.08772688 </v>
    <v>       0.31328941       0.93476666       0.41227312 </v>
    <v>       0.18671059       0.43476666       0.91227312 </v>
    <v>       0.68671059       0.06523334       0.58772688 </v>
    <v>       0.10291319       0.65900830       0.50897722 </v>
    <v>       0.60291319       0.84099170       0.99102278 </v>
    <v>       0.89708681       0.34099170       0.49102278 </v>
    <v>       0.39708681       0.15900830       0.00897722 </v>
    <v>       0.92628800       0.41743497       0.75443338 </v>
    <v>       0.57371200       0.91743497       0.25443338 </v>
    <v>       0.07371200       0.58256503       0.24556662 </v>
    <v>       0.67531698       0.51730849       0.60309195 </v>
    <v>       0.17531698       0.98269151       0.89690805 </v>
    <v>       0.32468302       0.48269151       0.39690805 </v>
    <v>       0.82468302       0.01730849       0.10309195 </v>
    <v>       0.46924102       0.27767412       0.55718532 </v>
    <v>       0.96924102       0.22232588       0.94281468 </v>
    <v>       0.53075898       0.72232588       0.44281468 </v>
    <v>       0.03075898       0.77767412       0.05718532 </v>
    <v>       0.79705992       0.53738803       0.72488921 </v>
    <v>       0.34619947       0.50777768       0.93006317 </v>
    <v>       0.84619947       0.99222232       0.56993683 </v>
    <v>       0.65380053       0.49222232       0.06993683 </v>
    <v>       0.15380053       0.00777768       0.43006317 </v>
    <v>       0.55537255       0.75743781       0.87209180 </v>
    <v>       0.05537255       0.74256219       0.62790820 </v>
    <v>       0.44462745       0.24256219       0.12790820 </v>
    <v>       0.29705992       0.96261197       0.77511079 </v>
    <v>       0.94462745       0.25743781       0.37209180 </v>
    <v>       0.70294008       0.03738803       0.22488921 </v>
    <v>       0.20294008       0.46261197       0.27511079 </v>
    <v>       0.46788094       0.18176786       0.87772561 </v>
    <v>       0.96788094       0.31823214       0.62227439 </v>
    <v>       0.53211906       0.81823214       0.12227439 </v>
    <v>       0.03211906       0.68176786       0.37772561 </v>
    <v>       0.59149624       0.01087139       0.69829218 </v>
    <v>       0.09149624       0.48912861       0.80170782 </v>
    <v>       0.40850376       0.98912861       0.30170782 </v>
    <v>       0.90850376       0.51087139       0.19829218 </v>
    <v>       0.35279406       0.18239620       0.63936615 </v>
    <v>       0.85279406       0.31760380       0.86063385 </v>
    <v>       0.64720594       0.81760380       0.36063385 </v>
    <v>       0.14720594       0.68239620       0.13936615 </v>
    <v>       0.53158529       0.41450165       0.65008676 </v>
    <v>       0.03158529       0.08549835       0.84991324 </v>
    <v>       0.46841471       0.58549835       0.34991324 </v>
    <v>       0.96841471       0.91450165       0.15008676 </v>
    <v>       0.60767394       0.67398563       0.57883502 </v>
    <v>       0.10767394       0.82601437       0.92116498 </v>
    <v>       0.39232606       0.32601437       0.42116498 </v>
    <v>       0.87512350       0.68149577       0.00929831 </v>
    <v>       0.76739488       0.45202538       0.47686522 </v>
    <v>       0.26739488       0.04797462       0.02313478 </v>
    <v>       0.23260512       0.54797462       0.52313478 </v>
    <v>       0.73260512       0.95202538       0.97686522 </v>
    <v>       0.62487650       0.18149577       0.50929831 </v>
    <v>       0.12487650       0.31850423       0.99070169 </v>
    <v>       0.37512350       0.81850423       0.49070169 </v>
    <v>       0.89232606       0.17398563       0.07883502 </v>
    <v>       0.59045292       0.39192862       0.87316954 </v>
    <v>       0.09045292       0.10807138       0.62683046 </v>
    <v>       0.40954708       0.60807138       0.12683046 </v>
    <v>       0.90954708       0.89192862       0.37316954 </v>
    <v>       0.81637626       0.81382244       0.75881851 </v>
    <v>       0.31637626       0.68617756       0.74118149 </v>
    <v>       0.18362374       0.18617756       0.24118149 </v>
    <v>       0.68362374       0.31382244       0.25881851 </v>
   </varray>
  </structure>
  <varray name="forces" >
   <v>      -0.00035568       0.00014166       0.00061699 </v>
   <v>       0.00964891       0.00218658       0.00358494 </v>
   <v>       0.00964891      -0.00218658      -0.00358494 </v>
   <v>      -0.00964891      -0.00218658      -0.00358494 </v>
   <v>      -0.00964891       0.00218658       0.00358494 </v>
   <v>       0.00641113      -0.00634691      -0.00897263 </v>
   <v>       0.00641113       0.00634691       0.00897263 </v>
   <v>      -0.00641113       0.00634691       0.00897263 </v>
   <v>      -0.00641113      -0.00634691      -0.00897263 </v>
   <v>      -0.00035568      -0.00014166      -0.00061699 </v>
   <v>       0.00035568      -0.00014166      -0.00061699 </v>
   <v>       0.00035568       0.00014166       0.00061699 </v>
   <v>       0.00117874       0.00031097      -0.00083781 </v>
   <v>       0.00117874      -0.00031097       0.00083781 </v>
   <v>      -0.00117874      -0.00031097       0.00083781 </v>
   <v>      -0.00117874       0.00031097      -0.00083781 </v>
   <v>      -0.00112447       0.00036236      -0.00011836 </v>
   <v>      -0.00112447      -0.00036236       0.00011836 </v>
   <v>       0.00112447      -0.00036236       0.00011836 </v>
   <v>       0.00112447       0.00036236      -0.00011836 </v>
   <v>       0.00176820       0.00078511      -0.00156055 </v>
   <v>      -0.00005992       0.00120828      -0.00003089 </v>
   <v>      -0.00005992      -0.00120828       0.00003089 </v>
   <v>       0.00005992      -0.00120828       0.00003089 </v>
   <v>       0.00005992       0.00120828      -0.00003089 </v>
   <v>       0.00032244      -0.00689659      -0.00661589 </v>
   <v>       0.00032244       0.00689659       0.00661589 </v>
   <v>      -0.00032244       0.00689659       0.00661589 </v>
   <v>       0.00176820      -0.00078511       0.00156055 </v>
   <v>      -0.00032244      -0.00689659      -0.00661589 </v>
   <v>      -0.00176820       0.00078511      -0.00156055 </v>
   <v>      -0.00176820      -0.00078511       0.00156055 </v>
   <v>      -0.00005251       0.00232541       0.00609742 </v>
   <v>      -0.00005251      -0.00232541      -0.00609742 </v>
   <v>       0.00005251      -0.00232541      -0.00609742 </v>
   <v>       0.00005251       0.00232541       0.00609742 </v>
   <v>       0.00654060       0.00019428      -0.00552309 </v>
   <v>       0.00654060      -0.00019428       0.00552309 </v>
   <v>      -0.00654060      -0.00019428       0.00552309 </v>
   <v>      -0.00654060       0.00019428      -0.00552309 </v>
   <v>       0.00089674      -0.00018873       0.00063407 </v>
   <v>       0.00089674       0.00018873      -0.00063407 </v>
   <v>      -0.00089674       0.00018873      -0.00063407 </v>
   <v>      -0.00089674      -0.00018873       0.00063407 </v>
   <v>       0.00053118       0.00128445       0.00173337 </v>
   <v>       0.00053118      -0.00128445      -0.00173337 </v>
   <v>      -0.00053118      -0.00128445      -0.00173337 </v>
   <v>      -0.00053118       0.00128445       0.00173337 </v>
   <v>       0.00314082       0.00052873       0.00029856 </v>
   <v>       0.00314082      -0.00052873      -0.00029856 </v>
   <v>      -0.00314082      -0.00052873      -0.00029856 </v>
   <v>      -0.00165809      -0.00413406       0.00249810 </v>
   <v>       0.00262038      -0.00677119      -0.00125076 </v>
   <v>       0.00262038       0.00677119       0.00125076 </v>
   <v>      -0.00262038       0.00677119       0.00125076 </v>
   <v>      -0.00262038      -0.00677119      -0.00125076 </v>
   <v>       0.00165809      -0.00413406       0.00249810 </v>
   <v>       0.00165809       0.00413406      -0.00249810 </v>
   <v>      -0.00165809       0.00413406      -0.00249810 </v>
   <v>      -0.00314082       0.00052873       0.00029856 </v>
   <v>       0.00163094       0.00051293      -0.00261473 </v>
   <v>       0.00163094      -0.00051293       0.00261473 </v>
   <v>      -0.00163094      -0.00051293       0.00261473 </v>
   <v>      -0.00163094       0.00051293      -0.00261473 </v>
   <v>       0.00208002       0.00141306       0.00131646 </v>
   <v>       0.00208002      -0.00141306      -0.00131646 </v>
   <v>      -0.00208002      -0.00141306      -0.00131646 </v>
   <v>      -0.00208002       0.00141306       0.00131646 </v>
  </varray>
  <varray name="stress" >
   <v>       0.13636319       0.00000000       0.00000000 </v>
   <v>       0.00000000      -0.08209366       0.16115406 </v>
   <v>       0.00000000       0.16113933      -0.06165010 </v>
  </varray>
  <energy>
   <i name="e_fr_energy">   -526.66742303 </i>
   <i name="e_wo_entrp">   -526.66742303 </i>
   <i name="e_0_energy">      0.00000000 </i>
  </energy>
  <time name="totalsc">  494.03  494.07</time>
 </calculation>
 <calculation>
  <scstep>
   <time name="dav">  111.87  111.88</time>
   <time name="total">  117.09  117.09</time>
   <energy>
    <i name="alphaZ">   1623.79931276 </i>
    <i name="ewald"> -21035.81772950 </i>
    <i name="hartreedc">  -8123.65614983 </i>
    <i name="XCdc">   1520.81595434 </i>
    <i name="pawpsdc">  20424.32955792 </i>
    <i name="pawaedc"> -21067.27955542 </i>
    <i name="eentropy">      0.00000000 </i>
    <i name="bandstr">  -2145.20373786 </i>
    <i name="atom">  28276.34490735 </i>
    <i name="e_fr_energy">   -526.66744025 </i>
    <i name="e_wo_entrp">   -526.66744025 </i>
    <i name="e_0_energy">   -526.66744025 </i>
   </energy>
  </scstep>
  <scstep>
   <time name="diag">   16.99   16.98</time>
   <time name="diis">   66.94   66.94</time>
   <time name="orth">    2.82    2.81</time>
   <time name="total">   91.97   91.97</time>
   <energy>
    <i name="e_fr_energy">   -526.66744493 </i>
    <i name="e_wo_entrp">   -526.66744493 </i>
    <i name="e_0_energy">   -526.66744493 </i>
   </energy>
  </scstep>
  <scstep>
   <time name="diag">   17.00   17.00</time>
   <time name="diis">   43.76   43.76</time>
   <time name="orth">    2.81    2.81</time>
   <time name="total">   64.30   64.31</time>
   <energy>
    <i name="alphaZ">   1623.79931276 </i>
    <i name="ewald"> -21035.81772950 </i>
    <i name="hartreedc">  -8123.64116122 </i>
    <i name="XCdc">   1520.81506784 </i>
    <i name="pawpsdc">  20424.35048344 </i>
    <i name="pawaedc"> -21067.29872719 </i>
    <i name="eentropy">      0.00000000 </i>
    <i name="bandstr">  -2145.21959652 </i>
    <i name="atom">  28276.34490735 </i>
    <i name="e_fr_energy">   -526.66744306 </i>
    <i name="e_wo_entrp">   -526.66744306 </i>
    <i name="e_0_energy">   -526.66744306 </i>
   </energy>
  </scstep>
  <structure>
   <crystal>
    <varray name="basis" >
     <v>       7.68556741       0.00000000       0.00000000 </v>
     <v>       0.00000000       8.64245603      -0.51970793 </v>
     <v>       0.00000000       0.01702535       9.43223224 </v>
    </varray>
    <i name="volume">    626.57741646 </i>
    <varray name="rec_basis" >
     <v>       0.13011401       0.00000000       0.00000000 </v>
     <v>       0.00000000       0.11569529      -0.00020883 </v>
     <v>       0.00000000       0.00637471       0.10600794 </v>
    </varray>
   </crystal>
   <varray name="positions" >
    <v>       0.42628731       0.08256528       0.74556762 </v>
    <v>       0.81330823       0.56523712       0.08773279 </v>
    <v>       0.31330823       0.93476288       0.41226721 </v>
    <v>       0.18669177       0.43476288       0.91226721 </v>
    <v>       0.68669177       0.06523712       0.58773279 </v>
    <v>       0.10292570       0.65899732       0.50896235 </v>
    <v>       0.60292570       0.84100268       0.99103765 </v>
    <v>       0.89707430       0.34100268       0.49103765 </v>
    <v>       0.39707430       0.15899732       0.00896235 </v>
    <v>       0.92628731       0.41743472       0.75443238 </v>
    <v>       0.57371269       0.91743472       0.25443238 </v>
    <v>       0.07371269       0.58256528       0.24556762 </v>
    <v>       0.67531928       0.51730904       0.60309064 </v>
    <v>       0.17531928       0.98269096       0.89690936 </v>
    <v>       0.32468072       0.48269096       0.39690936 </v>
    <v>       0.82468072       0.01730904       0.10309064 </v>
    <v>       0.46923883       0.27767475       0.55718517 </v>
    <v>       0.96923883       0.22232525       0.94281483 </v>
    <v>       0.53076117       0.72232525       0.44281483 </v>
    <v>       0.03076117       0.77767475       0.05718517 </v>
    <v>       0.79706337       0.53738940       0.72488680 </v>
    <v>       0.34619936       0.50777978       0.93006324 </v>
    <v>       0.84619936       0.99222022       0.56993676 </v>
    <v>       0.65380064       0.49222022       0.06993676 </v>
    <v>       0.15380064       0.00777978       0.43006324 </v>
    <v>       0.55537317       0.75742587       0.87208063 </v>
    <v>       0.05537317       0.74257413       0.62791937 </v>
    <v>       0.44462683       0.24257413       0.12791937 </v>
    <v>       0.29706337       0.96261060       0.77511320 </v>
    <v>       0.94462683       0.25742587       0.37208063 </v>
    <v>       0.70293663       0.03738940       0.22488680 </v>
    <v>       0.20293663       0.46261060       0.27511320 </v>
    <v>       0.46788084       0.18177187       0.87773553 </v>
    <v>       0.96788084       0.31822813       0.62226447 </v>
    <v>       0.53211916       0.81822813       0.12226447 </v>
    <v>       0.03211916       0.68177187       0.37773553 </v>
    <v>       0.59150900       0.01087175       0.69828342 </v>
    <v>       0.09150900       0.48912825       0.80171658 </v>
    <v>       0.40849100       0.98912825       0.30171658 </v>
    <v>       0.90849100       0.51087175       0.19828342 </v>
    <v>       0.35279581       0.18239587       0.63936714 </v>
    <v>       0.85279581       0.31760413       0.86063286 </v>
    <v>       0.64720419       0.81760413       0.36063286 </v>
    <v>       0.14720419       0.68239587       0.13936714 </v>
    <v>       0.53158633       0.41450387       0.65008963 </v>
    <v>       0.03158633       0.08549613       0.84991037 </v>
    <v>       0.46841367       0.58549613       0.34991037 </v>
    <v>       0.96841367       0.91450387       0.15008963 </v>
    <v>       0.60768007       0.67398655       0.57883555 </v>
    <v>       0.10768007       0.82601345       0.92116445 </v>
    <v>       0.39231993       0.32601345       0.42116445 </v>
    <v>       0.87512026       0.68148859       0.00930189 </v>
    <v>       0.76739999       0.45201364       0.47686259 </v>
    <v>       0.26739999       0.04798636       0.02313741 </v>
    <v>       0.23260001       0.54798636       0.52313741 </v>
    <v>       0.73260001       0.95201364       0.97686259 </v>
    <v>       0.62487974       0.18148859       0.50930189 </v>
    <v>       0.12487974       0.31851141       0.99069811 </v>
    <v>       0.37512026       0.81851141       0.49069811 </v>
    <v>       0.89231993       0.17398655       0.07883555 </v>
    <v>       0.59045610       0.39192952       0.87316543 </v>
    <v>       0.09045610       0.10807048       0.62683457 </v>
    <v>       0.40954390       0.60807048       0.12683457 </v>
    <v>       0.90954390       0.89192952       0.37316543 </v>
    <v>       0.81638031       0.81382489       0.75882074 </v>
    <v>       0.31638031       0.68617511       0.74117926 </v>
    <v>       0.18361969       0.18617511       0.24117926 </v>
    <v>       0.68361969       0.31382489       0.25882074 </v>
   </varray>
  </structure>
  <varray name="forces" >
   <v>       0.00070080      -0.00042318       0.00050068 </v>
   <v>      -0.00008848      -0.00106983       0.00016578 </v>
   <v>      -0.00008848       0.00106983      -0.00016578 </v>
   <v>       0.00008848       0.00106983      -0.00016578 </v>
   <v>       0.00008848      -0.00106983       0.00016578 </v>
   <v>       0.00115047       0.00310917       0.00361982 </v>
   <v>       0.00115047      -0.00310917      -0.00361982 </v>
   <v>      -0.00115047      -0.00310917      -0.00361982 </v>
   <v>      -0.00115047       0.00310917       0.00361982 </v>
   <v>       0.00070080       0.00042318      -0.00050068 </v>
   <v>      -0.00070080       0.00042318      -0.00050068 </v>
   <v>      -0.00070080      -0.00042318       0.00050068 </v>
   <v>       0.00107647       0.00074676      -0.00025665 </v>
   <v>       0.00107647      -0.00074676       0.00025665 </v>
   <v>      -0.00107647      -0.00074676       0.00025665 </v>
   <v>      -0.00107647       0.00074676      -0.00025665 </v>
   <v>      -0.00069893       0.00021851      -0.00027953 </v>
   <v>      -0.00069893      -0.00021851       0.00027953 </v>
   <v>       0.00069893      -0.00021851       0.00027953 </v>
   <v>       0.00069893       0.00021851      -0.00027953 </v>
   <v>       0.00235008       0.00004386      -0.00159536 </v>
   <v>      -0.00262887      -0.00019652      -0.00020941 </v>
   <v>      -0.00262887       0.00019652       0.00020941 </v>
   <v>       0.00262887       0.00019652       0.00020941 </v>
   <v>       0.00262887      -0.00019652      -0.00020941 </v>
   <v>       0.00327820      -0.00190320       0.00026078 </v>
   <v>       0.00327820       0.00190320      -0.00026078 </v>
   <v>      -0.00327820       0.00190320      -0.00026078 </v>
   <v>       0.00235008      -0.00004386       0.00159536 </v>
   <v>      -0.00327820      -0.00190320       0.00026078 </v>
   <v>      -0.00235008       0.00004386      -0.00159536 </v>
   <v>      -0.00235008      -0.00004386       0.00159536 </v>
   <v>       0.00104177       0.00089112       0.00084883 </v>
   <v>       0.00104177      -0.00089112      -0.00084883 </v>
   <v>      -0.00104177      -0.00089112      -0.00084883 </v>
   <v>      -0.00104177       0.00089112       0.00084883 </v>
   <v>       0.00080619      -0.00032354       0.00054844 </v>
   <v>       0.00080619       0.00032354      -0.00054844 </v>
   <v>      -0.00080619       0.00032354      -0.00054844 </v>
   <v>      -0.00080619      -0.00032354       0.00054844 </v>
   <v>       0.00109057      -0.00012649       0.00096533 </v>
   <v>       0.00109057       0.00012649      -0.00096533 </v>
   <v>      -0.00109057       0.00012649      -0.00096533 </v>
   <v>      -0.00109057      -0.00012649       0.00096533 </v>
   <v>       0.00061410       0.00055509       0.00075483 </v>
   <v>       0.00061410      -0.00055509      -0.00075483 </v>
   <v>      -0.00061410      -0.00055509      -0.00075483 </v>
   <v>      -0.00061410       0.00055509       0.00075483 </v>
   <v>       0.00257315       0.00035399      -0.00092247 </v>
   <v>       0.00257315      -0.00035399       0.00092247 </v>
   <v>      -0.00257315      -0.00035399       0.00092247 </v>
   <v>       0.00089976      -0.00034782       0.00051726 </v>
   <v>      -0.00065680      -0.00288729      -0.00021318 </v>
   <v>      -0.00065680       0.00288729       0.00021318 </v>
   <v>       0.00065680       0.00288729       0.00021318 </v>
   <v>       0.00065680      -0.00288729      -0.00021318 </v>
   <v>      -0.00089976      -0.00034782       0.00051726 </v>
   <v>      -0.00089976       0.00034782      -0.00051726 </v>
   <v>       0.00089976       0.00034782      -0.00051726 </v>
   <v>      -0.00257315       0.00035399      -0.00092247 </v>
   <v>       0.00116615       0.00166890      -0.00118690 </v>
   <v>       0.00116615      -0.00166890       0.00118690 </v>
   <v>      -0.00116615      -0.00166890       0.00118690 </v>
   <v>      -0.00116615       0.00166890      -0.00118690 </v>
   <v>       0.00219481       0.00110613       0.00009273 </v>
   <v>       0.00219481      -0.00110613      -0.00009273 </v>
   <v>      -0.00219481      -0.00110613      -0.00009273 </v>
   <v>      -0.00219481       0.00110613       0.00009273 </v>
  </varray>
  <varray name="stress" >
   <v>       0.06794320       0.00000000       0.00000000 </v>
   <v>       0.00000000      -0.12546742       0.05778804 </v>
   <v>       0.00000000       0.05777573      -0.10345180 </v>
  </varray>
  <energy>
   <i name="e_fr_energy">   -526.66744306 </i>
   <i name="e_wo_entrp">   -526.66744306 </i>
   <i name="e_0_energy">      0.00000000 </i>
  </energy>
  <time name="totalsc">  415.51  420.07</time>
 </calculation>
 <calculation>
  <scstep>
   <time name="dav">  110.42  110.43</time>
   <time name="total">  115.62  115.63</time>
   <energy>
    <i name="alphaZ">   1623.85267296 </i>
    <i name="ewald"> -21036.02202945 </i>
    <i name="hartreedc">  -8123.73202045 </i>
    <i name="XCdc">   1520.83439401 </i>
    <i name="pawpsdc">  20424.37517706 </i>
    <i name="pawaedc"> -21067.32286211 </i>
    <i name="eentropy">      0.00000000 </i>
    <i name="bandstr">  -2144.99769161 </i>
    <i name="atom">  28276.34490735 </i>
    <i name="e_fr_energy">   -526.66745225 </i>
    <i name="e_wo_entrp">   -526.66745225 </i>
    <i name="e_0_energy">   -526.66745225 </i>
   </energy>
  </scstep>
  <scstep>
   <time name="diag">   16.97   16.97</time>
   <time name="diis">   66.84   66.84</time>
   <time name="orth">    2.81    2.81</time>
   <time name="total">   91.86   91.86</time>
   <energy>
    <i name="e_fr_energy">   -526.66745408 </i>
    <i name="e_wo_entrp">   -526.66745408 </i>
    <i name="e_0_energy">   -526.66745408 </i>
   </energy>
  </scstep>
  <scstep>
   <time name="diag">   17.00   17.00</time>
   <time name="diis">   42.73   42.73</time>
   <time name="orth">    2.81    2.81</time>
   <time name="total">   63.28   63.28</time>
   <energy>
    <i name="alphaZ">   1623.85267296 </i>
    <i name="ewald"> -21036.02202945 </i>
    <i name="hartreedc">  -8123.55860477 </i>
    <i name="XCdc">   1520.82357000 </i>
    <i name="pawpsdc">  20424.47201665 </i>
    <i name="pawaedc"> -21067.41283349 </i>
    <i name="eentropy">      0.00000000 </i>
    <i name="bandstr">  -2145.16715235 </i>
    <i name="atom">  28276.34490735 </i>
    <i name="e_fr_energy">   -526.66745311 </i>
    <i name="e_wo_entrp">   -526.66745311 </i>
    <i name="e_0_energy">   -526.66745311 </i>
   </energy>
  </scstep>
  <structure>
   <crystal>
    <varray name="basis" >
     <v>       7.68568611       0.00000000       0.00000000 </v>
     <v>       0.00000000       8.64221978      -0.51957845 </v>
     <v>       0.00000000       0.01715382       9.43202694 </v>
    </varray>
    <i name="volume">    626.55682697 </i>
    <varray name="rec_basis" >
     <v>       0.13011200       0.00000000       0.00000000 </v>
     <v>       0.00000000       0.11569836      -0.00021042 </v>
     <v>       0.00000000       0.00637343       0.10601016 </v>
    </varray>
   </crystal>
   <varray name="positions" >
    <v>       0.42629044       0.08256357       0.74556954 </v>
    <v>       0.81331040       0.56523326       0.08773398 </v>
    <v>       0.31331040       0.93476674       0.41226602 </v>
    <v>       0.18668960       0.43476674       0.91226602 </v>
    <v>       0.68668960       0.06523326       0.58773398 </v>
    <v>       0.10293271       0.65900852       0.50897460 </v>
    <v>       0.60293271       0.84099148       0.99102540 </v>
    <v>       0.89706729       0.34099148       0.49102540 </v>
    <v>       0.39706729       0.15900852       0.00897460 </v>
    <v>       0.92629044       0.41743643       0.75443046 </v>
    <v>       0.57370956       0.91743643       0.25443046 </v>
    <v>       0.07370956       0.58256357       0.24556954 </v>
    <v>       0.67532456       0.51731217       0.60308967 </v>
    <v>       0.17532456       0.98268783       0.89691033 </v>
    <v>       0.32467544       0.48268783       0.39691033 </v>
    <v>       0.82467544       0.01731217       0.10308967 </v>
    <v>       0.46923531       0.27767573       0.55718415 </v>
    <v>       0.96923531       0.22232427       0.94281585 </v>
    <v>       0.53076469       0.72232427       0.44281585 </v>
    <v>       0.03076469       0.77767573       0.05718415 </v>
    <v>       0.79707467       0.53738978       0.72488050 </v>
    <v>       0.34618723       0.50777926       0.93006241 </v>
    <v>       0.84618723       0.99222074       0.56993759 </v>
    <v>       0.65381277       0.49222074       0.06993759 </v>
    <v>       0.15381277       0.00777926       0.43006241 </v>
    <v>       0.55538836       0.75741643       0.87207965 </v>
    <v>       0.05538836       0.74258357       0.62792035 </v>
    <v>       0.44461164       0.24258357       0.12792035 </v>
    <v>       0.29707467       0.96261022       0.77511950 </v>
    <v>       0.94461164       0.25741643       0.37207965 </v>
    <v>       0.70292533       0.03738978       0.22488050 </v>
    <v>       0.20292533       0.46261022       0.27511950 </v>
    <v>       0.46788562       0.18177607       0.87774027 </v>
    <v>       0.96788562       0.31822393       0.62225973 </v>
    <v>       0.53211438       0.81822393       0.12225973 </v>
    <v>       0.03211438       0.68177607       0.37774027 </v>
    <v>       0.59151446       0.01087046       0.69828421 </v>
    <v>       0.09151446       0.48912954       0.80171579 </v>
    <v>       0.40848554       0.98912954       0.30171579 </v>
    <v>       0.90848554       0.51087046       0.19828421 </v>
    <v>       0.35280107       0.18239530       0.63937087 </v>
    <v>       0.85280107       0.31760470       0.86062913 </v>
    <v>       0.64719893       0.81760470       0.36062913 </v>
    <v>       0.14719893       0.68239530       0.13937087 </v>
    <v>       0.53158930       0.41450644       0.65009299 </v>
    <v>       0.03158930       0.08549356       0.84990701 </v>
    <v>       0.46841070       0.58549356       0.34990701 </v>
    <v>       0.96841070       0.91450644       0.15009299 </v>
    <v>       0.60769276       0.67398813       0.57883224 </v>
    <v>       0.10769276       0.82601187       0.92116776 </v>
    <v>       0.39230724       0.32601187       0.42116776 </v>
    <v>       0.87512396       0.68148617       0.00930424 </v>
    <v>       0.76739767       0.45200020       0.47686078 </v>
    <v>       0.26739767       0.04799980       0.02313922 </v>
    <v>       0.23260233       0.54799980       0.52313922 </v>
    <v>       0.73260233       0.95200020       0.97686078 </v>
    <v>       0.62487604       0.18148617       0.50930424 </v>
    <v>       0.12487604       0.31851383       0.99069576 </v>
    <v>       0.37512396       0.81851383       0.49069576 </v>
    <v>       0.89230724       0.17398813       0.07883224 </v>
    <v>       0.59046191       0.39193649       0.87316079 </v>
    <v>       0.09046191       0.10806351       0.62683921 </v>
    <v>       0.40953809       0.60806351       0.12683921 </v>
    <v>       0.90953809       0.89193649       0.37316079 </v>
    <v>       0.81639098       0.81382975       0.75882164 </v>
    <v>       0.31639098       0.68617025       0.74117836 </v>
    <v>       0.18360902       0.18617025       0.24117836 </v>
    <v>       0.68360902       0.31382975       0.25882164 </v>
   </varray>
  </structure>
  <varray name="forces" >
   <v>       0.00214632       0.00037657       0.00164313 </v>
   <v>       0.00009493      -0.00007865      -0.00055606 </v>
   <v>       0.00009493       0.00007865       0.00055606 </v>
   <v>      -0.00009493       0.00007865       0.00055606 </v>
   <v>      -0.00009493      -0.00007865      -0.00055606 </v>
   <v>       0.00005969       0.00255247      -0.00140347 </v>
   <v>       0.00005969      -0.00255247       0.00140347 </v>
   <v>      -0.00005969      -0.00255247       0.00140347 </v>
   <v>      -0.00005969       0.00255247      -0.00140347 </v>
   <v>       0.00214632      -0.00037657      -0.00164313 </v>
   <v>      -0.00214632      -0.00037657      -0.00164313 </v>
   <v>      -0.00214632       0.00037657       0.00164313 </v>
   <v>       0.00151521      -0.00058064      -0.00047943 </v>
   <v>       0.00151521       0.00058064       0.00047943 </v>
   <v>      -0.00151521       0.00058064       0.00047943 </v>
[...]
       <r>   -2.0495    1.0000 </r>
       <r>   -2.0324    1.0000 </r>
       <r>   -1.9877    1.0000 </r>
       <r>   -1.9357    1.0000 </r>
       <r>   -1.9081    1.0000 </r>
       <r>   -1.8861    1.0000 </r>
       <r>   -1.8714    1.0000 </r>
       <r>   -1.8552    1.0000 </r>
       <r>   -1.7910    1.0000 </r>
       <r>   -1.7618    1.0000 </r>
       <r>   -1.7184    1.0000 </r>
       <r>   -1.6091    1.0000 </r>
       <r>   -1.6021    1.0000 </r>
       <r>   -1.5709    1.0000 </r>
       <r>   -1.5399    1.0000 </r>
       <r>   -1.4668    1.0000 </r>
       <r>   -1.3740    1.0000 </r>
       <r>   -1.3650    1.0000 </r>
       <r>   -1.2617    1.0000 </r>
       <r>   -1.1966    1.0000 </r>
       <r>   -1.0820    1.0000 </r>
       <r>   -1.0476    1.0000 </r>
       <r>   -0.9301    1.0000 </r>
       <r>   -0.8766    1.0000 </r>
       <r>   -0.7838    1.0000 </r>
       <r>   -0.6568    1.0000 </r>
       <r>   -0.5810    1.0000 </r>
       <r>   -0.4481    1.0000 </r>
       <r>   -0.4017    1.0000 </r>
       <r>   -0.3733    1.0000 </r>
       <r>   -0.3130    1.0000 </r>
       <r>   -0.2768    1.0000 </r>
       <r>   -0.2555    1.0000 </r>
       <r>   -0.2347    1.0000 </r>
       <r>   -0.1593    1.0000 </r>
       <r>   -0.1393    1.0000 </r>
       <r>   -0.0831    1.0000 </r>
       <r>   -0.0372    1.0000 </r>
       <r>    0.0019    1.0000 </r>
       <r>    0.1236    1.0000 </r>
       <r>    0.1444    1.0000 </r>
       <r>    0.1929    1.0000 </r>
       <r>    0.2300    1.0000 </r>
       <r>    0.2578    1.0000 </r>
       <r>    0.3435    1.0000 </r>
       <r>    0.3789    1.0000 </r>
       <r>    0.4076    1.0000 </r>
       <r>    0.4585    1.0000 </r>
       <r>    0.4875    1.0000 </r>
       <r>    0.5105    1.0000 </r>
       <r>    0.5355    1.0000 </r>
       <r>    0.5869    1.0000 </r>
       <r>    0.6671    1.0000 </r>
       <r>    0.7244    1.0000 </r>
       <r>    0.7638    1.0000 </r>
       <r>    0.7677    1.0000 </r>
       <r>    0.8036    1.0000 </r>
       <r>    0.8310    1.0000 </r>
       <r>    0.8668    1.0000 </r>
       <r>    0.9225    1.0000 </r>
       <r>    0.9961    1.0000 </r>
       <r>    1.0300    1.0000 </r>
       <r>    1.0737    1.0000 </r>
       <r>    1.1644    1.0000 </r>
       <r>    1.1875    1.0000 </r>
       <r>    1.2129    1.0000 </r>
       <r>    1.2348    1.0000 </r>
       <r>    1.2588    1.0000 </r>
       <r>    1.2890    1.0000 </r>
       <r>    1.3681    1.0000 </r>
       <r>    1.3980    1.0000 </r>
       <r>    1.4159    1.0000 </r>
       <r>    1.4383    1.0000 </r>
       <r>    1.5356    1.0000 </r>
       <r>    1.5923    1.0000 </r>
       <r>    1.6039    1.0000 </r>
       <r>    1.6335    1.0000 </r>
       <r>    1.7035    1.0000 </r>
       <r>    1.7424    1.0000 </r>
       <r>    1.7809    1.0000 </r>
       <r>    1.8278    1.0000 </r>
       <r>    1.8623    1.0000 </r>
       <r>    1.8930    1.0000 </r>
       <r>    1.9068    1.0000 </r>
       <r>    1.9562    1.0000 </r>
       <r>    7.4481    0.0000 </r>
       <r>    7.8235    0.0000 </r>
       <r>    8.0677    0.0000 </r>
       <r>    8.1517    0.0000 </r>
       <r>    8.4999    0.0000 </r>
       <r>    8.5540    0.0000 </r>
       <r>    8.7097    0.0000 </r>
       <r>    8.7819    0.0000 </r>
       <r>    8.8039    0.0000 </r>
       <r>    8.8472    0.0000 </r>
       <r>    8.9654    0.0000 </r>
       <r>    9.0123    0.0000 </r>
       <r>    9.0571    0.0000 </r>
       <r>    9.1028    0.0000 </r>
       <r>    9.2168    0.0000 </r>
       <r>    9.2979    0.0000 </r>
       <r>    9.3481    0.0000 </r>
       <r>    9.4462    0.0000 </r>
       <r>    9.5195    0.0000 </r>
       <r>    9.5867    0.0000 </r>
       <r>    9.6490    0.0000 </r>
       <r>    9.6902    0.0000 </r>
       <r>    9.7734    0.0000 </r>
       <r>    9.9381    0.0000 </r>
       <r>    9.9920    0.0000 </r>
       <r>   10.0230    0.0000 </r>
       <r>   10.0917    0.0000 </r>
       <r>   10.2571    0.0000 </r>
       <r>   10.4053    0.0000 </r>
       <r>   10.4261    0.0000 </r>
       <r>   10.5977    0.0000 </r>
       <r>   10.7215    0.0000 </r>
       <r>   10.7484    0.0000 </r>
       <r>   10.9019    0.0000 </r>
       <r>   11.2530    0.0000 </r>
       <r>   11.3130    0.0000 </r>
       <r>   11.3465    0.0000 </r>
       <r>   11.6002    0.0000 </r>
       <r>   11.7910    0.0000 </r>
       <r>   12.0343    0.0000 </r>
       <r>   12.0983    0.0000 </r>
       <r>   12.1101    0.0000 </r>
       <r>   12.3328    0.0000 </r>
       <r>   12.5739    0.0000 </r>
       <r>   12.6949    0.0000 </r>
       <r>   12.7724    0.0000 </r>
       <r>   12.8124    0.0000 </r>
       <r>   12.8672    0.0000 </r>
       <r>   12.9391    0.0000 </r>
       <r>   12.9860    0.0000 </r>
       <r>   13.0867    0.0000 </r>
       <r>   13.3013    0.0000 </r>
       <r>   13.3231    0.0000 </r>
       <r>   13.3984    0.0000 </r>
       <r>   13.4719    0.0000 </r>
       <r>   13.5528    0.0000 </r>
       <r>   13.5830    0.0000 </r>
       <r>   13.6589    0.0000 </r>
       <r>   13.7759    0.0000 </r>
       <r>   13.7946    0.0000 </r>
       <r>   13.9443    0.0000 </r>
       <r>   14.0761    0.0000 </r>
       <r>   14.1165    0.0000 </r>
       <r>   14.1468    0.0000 </r>
       <r>   14.1968    0.0000 </r>
       <r>   14.2468    0.0000 </r>
       <r>   14.2768    0.0000 </r>
      </set>
      <set comment="kpoint 16">
       <r>  -18.8907    1.0000 </r>
       <r>  -18.8218    1.0000 </r>
       <r>  -18.7411    1.0000 </r>
       <r>  -18.7019    1.0000 </r>
       <r>  -18.6629    1.0000 </r>
       <r>  -18.5811    1.0000 </r>
       <r>  -18.5457    1.0000 </r>
       <r>  -18.5179    1.0000 </r>
       <r>  -18.4763    1.0000 </r>
       <r>  -18.4484    1.0000 </r>
       <r>  -18.3463    1.0000 </r>
       <r>  -18.3205    1.0000 </r>
       <r>  -17.9429    1.0000 </r>
       <r>  -17.8563    1.0000 </r>
       <r>  -17.8137    1.0000 </r>
       <r>  -17.7570    1.0000 </r>
       <r>  -17.4107    1.0000 </r>
       <r>  -17.3400    1.0000 </r>
       <r>  -17.2397    1.0000 </r>
       <r>  -17.1680    1.0000 </r>
       <r>  -16.7525    1.0000 </r>
       <r>  -16.7185    1.0000 </r>
       <r>  -16.5900    1.0000 </r>
       <r>  -16.5687    1.0000 </r>
       <r>  -16.4147    1.0000 </r>
       <r>  -16.3860    1.0000 </r>
       <r>  -16.2967    1.0000 </r>
       <r>  -16.2797    1.0000 </r>
       <r>  -16.2088    1.0000 </r>
       <r>  -16.1630    1.0000 </r>
       <r>  -16.0508    1.0000 </r>
       <r>  -16.0255    1.0000 </r>
       <r>  -15.6784    1.0000 </r>
       <r>  -15.6740    1.0000 </r>
       <r>  -15.6357    1.0000 </r>
       <r>  -15.5993    1.0000 </r>
       <r>  -15.4623    1.0000 </r>
       <r>  -15.4427    1.0000 </r>
       <r>  -15.4056    1.0000 </r>
       <r>  -15.3777    1.0000 </r>
       <r>  -15.3569    1.0000 </r>
       <r>  -15.3138    1.0000 </r>
       <r>  -15.2486    1.0000 </r>
       <r>  -15.2291    1.0000 </r>
       <r>  -15.2199    1.0000 </r>
       <r>  -15.2083    1.0000 </r>
       <r>  -15.1896    1.0000 </r>
       <r>  -15.1815    1.0000 </r>
       <r>  -14.9814    1.0000 </r>
       <r>  -14.9711    1.0000 </r>
       <r>  -14.7624    1.0000 </r>
       <r>  -14.7509    1.0000 </r>
       <r>   -6.7030    1.0000 </r>
       <r>   -6.6943    1.0000 </r>
       <r>   -6.3779    1.0000 </r>
       <r>   -6.3600    1.0000 </r>
       <r>   -5.8735    1.0000 </r>
       <r>   -5.8655    1.0000 </r>
       <r>   -5.8179    1.0000 </r>
       <r>   -5.7912    1.0000 </r>
       <r>   -5.3602    1.0000 </r>
       <r>   -5.3452    1.0000 </r>
       <r>   -5.1132    1.0000 </r>
       <r>   -5.0997    1.0000 </r>
       <r>   -4.8536    1.0000 </r>
       <r>   -4.8168    1.0000 </r>
       <r>   -4.6564    1.0000 </r>
       <r>   -4.6506    1.0000 </r>
       <r>   -4.5403    1.0000 </r>
       <r>   -4.5091    1.0000 </r>
       <r>   -4.4571    1.0000 </r>
       <r>   -4.3729    1.0000 </r>
       <r>   -4.3023    1.0000 </r>
       <r>   -4.2630    1.0000 </r>
       <r>   -4.1099    1.0000 </r>
       <r>   -4.0203    1.0000 </r>
       <r>   -3.8204    1.0000 </r>
       <r>   -3.7965    1.0000 </r>
       <r>   -3.7712    1.0000 </r>
       <r>   -3.7514    1.0000 </r>
       <r>   -3.5232    1.0000 </r>
       <r>   -3.4824    1.0000 </r>
       <r>   -3.4321    1.0000 </r>
       <r>   -3.3923    1.0000 </r>
       <r>   -3.2136    1.0000 </r>
       <r>   -3.1753    1.0000 </r>
       <r>   -3.1259    1.0000 </r>
       <r>   -3.0596    1.0000 </r>
       <r>   -2.9739    1.0000 </r>
       <r>   -2.8704    1.0000 </r>
       <r>   -2.8504    1.0000 </r>
       <r>   -2.8233    1.0000 </r>
       <r>   -2.6682    1.0000 </r>
       <r>   -2.5931    1.0000 </r>
       <r>   -2.5394    1.0000 </r>
       <r>   -2.5037    1.0000 </r>
       <r>   -2.4680    1.0000 </r>
       <r>   -2.4169    1.0000 </r>
       <r>   -2.3590    1.0000 </r>
       <r>   -2.2766    1.0000 </r>
       <r>   -2.2656    1.0000 </r>
       <r>   -2.2331    1.0000 </r>
       <r>   -2.1787    1.0000 </r>
       <r>   -2.1487    1.0000 </r>
       <r>   -2.0897    1.0000 </r>
       <r>   -2.0462    1.0000 </r>
       <r>   -2.0367    1.0000 </r>
       <r>   -2.0234    1.0000 </r>
       <r>   -2.0086    1.0000 </r>
       <r>   -1.9704    1.0000 </r>
       <r>   -1.9451    1.0000 </r>
       <r>   -1.9121    1.0000 </r>
       <r>   -1.8952    1.0000 </r>
       <r>   -1.8792    1.0000 </r>
       <r>   -1.8347    1.0000 </r>
       <r>   -1.7743    1.0000 </r>
       <r>   -1.7547    1.0000 </r>
       <r>   -1.7388    1.0000 </r>
       <r>   -1.6541    1.0000 </r>
       <r>   -1.5842    1.0000 </r>
       <r>   -1.5801    1.0000 </r>
       <r>   -1.5235    1.0000 </r>
       <r>   -1.4891    1.0000 </r>
       <r>   -1.4541    1.0000 </r>
       <r>   -1.4073    1.0000 </r>
       <r>   -1.3573    1.0000 </r>
       <r>   -1.2798    1.0000 </r>
       <r>   -1.2064    1.0000 </r>
       <r>   -0.9781    1.0000 </r>
       <r>   -0.9178    1.0000 </r>
       <r>   -0.9002    1.0000 </r>
       <r>   -0.8677    1.0000 </r>
       <r>   -0.7541    1.0000 </r>
       <r>   -0.6724    1.0000 </r>
       <r>   -0.5256    1.0000 </r>
       <r>   -0.4811    1.0000 </r>
       <r>   -0.4340    1.0000 </r>
       <r>   -0.3770    1.0000 </r>
       <r>   -0.2972    1.0000 </r>
       <r>   -0.2580    1.0000 </r>
       <r>   -0.1697    1.0000 </r>
       <r>   -0.1622    1.0000 </r>
       <r>   -0.1387    1.0000 </r>
       <r>   -0.0692    1.0000 </r>
       <r>   -0.0426    1.0000 </r>
       <r>    0.0212    1.0000 </r>
       <r>    0.0664    1.0000 </r>
       <r>    0.0974    1.0000 </r>
       <r>    0.1623    1.0000 </r>
       <r>    0.2075    1.0000 </r>
       <r>    0.2718    1.0000 </r>
       <r>    0.3415    1.0000 </r>
       <r>    0.3575    1.0000 </r>
       <r>    0.4371    1.0000 </r>
       <r>    0.5035    1.0000 </r>
       <r>    0.5102    1.0000 </r>
       <r>    0.5529    1.0000 </r>
       <r>    0.5859    1.0000 </r>
       <r>    0.6289    1.0000 </r>
       <r>    0.6677    1.0000 </r>
       <r>    0.6984    1.0000 </r>
       <r>    0.7339    1.0000 </r>
       <r>    0.7845    1.0000 </r>
       <r>    0.8271    1.0000 </r>
       <r>    0.8595    1.0000 </r>
       <r>    0.9070    1.0000 </r>
       <r>    0.9236    1.0000 </r>
       <r>    0.9568    1.0000 </r>
       <r>    0.9860    1.0000 </r>
       <r>    1.0828    1.0000 </r>
       <r>    1.1338    1.0000 </r>
       <r>    1.1755    1.0000 </r>
       <r>    1.2023    1.0000 </r>
       <r>    1.2266    1.0000 </r>
       <r>    1.2806    1.0000 </r>
       <r>    1.3683    1.0000 </r>
       <r>    1.3775    1.0000 </r>
       <r>    1.3978    1.0000 </r>
       <r>    1.4138    1.0000 </r>
       <r>    1.4414    1.0000 </r>
       <r>    1.5071    1.0000 </r>
       <r>    1.5528    1.0000 </r>
       <r>    1.5847    1.0000 </r>
       <r>    1.6076    1.0000 </r>
       <r>    1.6911    1.0000 </r>
       <r>    1.7170    1.0000 </r>
       <r>    1.7423    1.0000 </r>
       <r>    1.7897    1.0000 </r>
       <r>    1.9194    1.0000 </r>
       <r>    1.9612    1.0000 </r>
       <r>    1.9862    1.0000 </r>
       <r>    1.9952    1.0000 </r>
       <r>    7.6810    0.0000 </r>
       <r>    7.8611    0.0000 </r>
       <r>    8.0222    0.0000 </r>
       <r>    8.0838    0.0000 </r>
       <r>    8.6352    0.0000 </r>
       <r>    8.6613    0.0000 </r>
       <r>    8.7038    0.0000 </r>
       <r>    8.7624    0.0000 </r>
       <r>    8.8003    0.0000 </r>
       <r>    8.8185    0.0000 </r>
       <r>    8.9160    0.0000 </r>
       <r>    8.9744    0.0000 </r>
       <r>    9.1305    0.0000 </r>
       <r>    9.1948    0.0000 </r>
       <r>    9.2200    0.0000 </r>
       <r>    9.2728    0.0000 </r>
       <r>    9.4020    0.0000 </r>
       <r>    9.5068    0.0000 </r>
       <r>    9.5199    0.0000 </r>
       <r>    9.6460    0.0000 </r>
       <r>    9.6794    0.0000 </r>
       <r>    9.7060    0.0000 </r>
       <r>    9.7654    0.0000 </r>
       <r>    9.8744    0.0000 </r>
       <r>    9.9258    0.0000 </r>
       <r>   10.0151    0.0000 </r>
       <r>   10.0569    0.0000 </r>
       <r>   10.1066    0.0000 </r>
       <r>   10.3064    0.0000 </r>
       <r>   10.3663    0.0000 </r>
       <r>   10.5043    0.0000 </r>
       <r>   10.6121    0.0000 </r>
       <r>   10.8144    0.0000 </r>
       <r>   10.8639    0.0000 </r>
       <r>   11.1793    0.0000 </r>
       <r>   11.2114    0.0000 </r>
       <r>   11.4309    0.0000 </r>
       <r>   11.5418    0.0000 </r>
       <r>   11.6691    0.0000 </r>
       <r>   11.8175    0.0000 </r>
       <r>   12.1233    0.0000 </r>
       <r>   12.1615    0.0000 </r>
       <r>   12.4287    0.0000 </r>
       <r>   12.5109    0.0000 </r>
       <r>   12.7748    0.0000 </r>
       <r>   12.8423    0.0000 </r>
       <r>   12.9012    0.0000 </r>
       <r>   12.9560    0.0000 </r>
       <r>   13.0400    0.0000 </r>
       <r>   13.1056    0.0000 </r>
       <r>   13.1630    0.0000 </r>
       <r>   13.2538    0.0000 </r>
       <r>   13.3463    0.0000 </r>
       <r>   13.3740    0.0000 </r>
       <r>   13.4406    0.0000 </r>
       <r>   13.5835    0.0000 </r>
       <r>   13.6129    0.0000 </r>
       <r>   13.7308    0.0000 </r>
       <r>   13.8092    0.0000 </r>
       <r>   13.8384    0.0000 </r>
       <r>   13.9484    0.0000 </r>
       <r>   13.9768    0.0000 </r>
       <r>   14.0880    0.0000 </r>
       <r>   14.1045    0.0000 </r>
       <r>   14.2598    0.0000 </r>
       <r>   14.2822    0.0000 </r>
       <r>   14.2873    0.0000 </r>
      </set>
     </set>
    </set>
   </array>
  </eigenvalues>
  <separator name="orbital magnetization" >
   <v name="MAGDIPOLOUT">      0.00000000      0.00000000      0.00000000</v>
  </separator>
 </calculation>
 <structure name="finalpos" >
  <crystal>
   <varray name="basis" >
    <v>       7.68610333       0.00000000       0.00000000 </v>
    <v>       0.00000000       8.64204225      -0.51950059 </v>
    <v>       0.00000000       0.01723446       9.43196107 </v>
   </varray>
   <i name="volume">    626.57390544 </i>
   <varray name="rec_basis" >
    <v>       0.13010494       0.00000000       0.00000000 </v>
    <v>       0.00000000       0.11570068      -0.00021141 </v>
    <v>       0.00000000       0.00637265       0.10601085 </v>
   </varray>
  </crystal>
  <varray name="positions" >
   <v>       0.42630188       0.08256380       0.74557704 </v>
   <v>       0.81331659       0.56523094       0.08773419 </v>
   <v>       0.31331659       0.93476906       0.41226581 </v>
   <v>       0.18668341       0.43476906       0.91226581 </v>
   <v>       0.68668341       0.06523094       0.58773419 </v>
   <v>       0.10294093       0.65902419       0.50897597 </v>
   <v>       0.60294093       0.84097581       0.99102403 </v>
   <v>       0.89705907       0.34097581       0.49102403 </v>
   <v>       0.39705907       0.15902419       0.00897597 </v>
   <v>       0.92630188       0.41743620       0.75442296 </v>
   <v>       0.57369812       0.91743620       0.25442296 </v>
   <v>       0.07369812       0.58256380       0.24557704 </v>
   <v>       0.67533552       0.51731238       0.60308685 </v>
   <v>       0.17533552       0.98268762       0.89691315 </v>
   <v>       0.32466448       0.48268762       0.39691315 </v>
   <v>       0.82466448       0.01731238       0.10308685 </v>
   <v>       0.46923259       0.27767503       0.55718513 </v>
   <v>       0.96923259       0.22232497       0.94281487 </v>
   <v>       0.53076741       0.72232497       0.44281487 </v>
   <v>       0.03076741       0.77767503       0.05718513 </v>
   <v>       0.79709251       0.53739235       0.72486951 </v>
   <v>       0.34617754       0.50778295       0.93006451 </v>
   <v>       0.84617754       0.99221705       0.56993549 </v>
   <v>       0.65382246       0.49221705       0.06993549 </v>
   <v>       0.15382246       0.00778295       0.43006451 </v>
   <v>       0.55541036       0.75739345       0.87206855 </v>
   <v>       0.05541036       0.74260655       0.62793145 </v>
   <v>       0.44458964       0.24260655       0.12793145 </v>
   <v>       0.29709251       0.96260765       0.77513049 </v>
   <v>       0.94458964       0.25739345       0.37206855 </v>
   <v>       0.70290749       0.03739235       0.22486951 </v>
   <v>       0.20290749       0.46260765       0.27513049 </v>
   <v>       0.46789367       0.18178118       0.87774835 </v>
   <v>       0.96789367       0.31821882       0.62225165 </v>
   <v>       0.53210633       0.81821882       0.12225165 </v>
   <v>       0.03210633       0.68178118       0.37774835 </v>
   <v>       0.59151268       0.01086541       0.69829577 </v>
   <v>       0.09151268       0.48913459       0.80170423 </v>
   <v>       0.40848732       0.98913459       0.30170423 </v>
   <v>       0.90848732       0.51086541       0.19829577 </v>
   <v>       0.35280768       0.18239548       0.63937631 </v>
   <v>       0.85280768       0.31760452       0.86062369 </v>
   <v>       0.64719232       0.81760452       0.36062369 </v>
   <v>       0.14719232       0.68239548       0.13937631 </v>
   <v>       0.53159425       0.41451147       0.65009710 </v>
   <v>       0.03159425       0.08548853       0.84990290 </v>
   <v>       0.46840575       0.58548853       0.34990290 </v>
   <v>       0.96840575       0.91451147       0.15009710 </v>
   <v>       0.60771250       0.67399137       0.57882488 </v>
   <v>       0.10771250       0.82600863       0.92117512 </v>
   <v>       0.39228750       0.32600863       0.42117512 </v>
   <v>       0.87513536       0.68148924       0.00930226 </v>
   <v>       0.76738445       0.45198738       0.47685670 </v>
   <v>       0.26738445       0.04801262       0.02314330 </v>
   <v>       0.23261555       0.54801262       0.52314330 </v>
   <v>       0.73261555       0.95198738       0.97685670 </v>
   <v>       0.62486464       0.18148924       0.50930226 </v>
   <v>       0.12486464       0.31851076       0.99069774 </v>
   <v>       0.37513536       0.81851076       0.49069774 </v>
   <v>       0.89228750       0.17399137       0.07882488 </v>
   <v>       0.59047100       0.39194669       0.87315469 </v>
   <v>       0.09047100       0.10805331       0.62684531 </v>
   <v>       0.40952900       0.60805331       0.12684531 </v>
   <v>       0.90952900       0.89194669       0.37315469 </v>
   <v>       0.81640820       0.81383696       0.75882329 </v>
   <v>       0.31640820       0.68616304       0.74117671 </v>
   <v>       0.18359180       0.18616304       0.24117671 </v>
   <v>       0.68359180       0.31383696       0.25882329 </v>
  </varray>
 </structure>
</modeling>
