unknown system                          
   1.00000000000000     
     2.314988    2.314988   -0.000000
     0.000000    2.314988    2.314988
     2.314988    0.000000    2.314988
   Li   O 
     2     1
Direct
  0.750000  0.750000  0.750000
  0.250000  0.250000  0.250000
  0.000000 -0.000000 -0.000000
 
   48   48   48
 0.19901038096E+03 0.19644182817E+03 0.18847269899E+03 0.17466586990E+03 0.15519367968E+03
 0.13143733975E+03 0.10592159746E+03 0.81577445590E+02 0.60765036953E+02 0.44592517489E+02
 0.32823909221E+02 0.24322896192E+02 0.18089924651E+02 0.13600650469E+02 0.10375996941E+02
 0.80313796911E+01 0.62936125235E+01 0.49839746991E+01 0.39905783304E+01 0.32424430778E+01
 0.26910073524E+01 0.22999776055E+01 0.20413373223E+01 0.18945824906E+01 0.18470882041E+01
 0.18945824906E+01 0.20413373223E+01 0.22999776055E+01 0.26910073524E+01 0.32424430778E+01
 0.39905783304E+01 0.49839746991E+01 0.62936125235E+01 0.80313796911E+01 0.10375996941E+02
 0.13600650469E+02 0.18089924651E+02 0.24322896192E+02 0.32823909221E+02 0.44592517489E+02
 0.60765036953E+02 0.81577445590E+02 0.10592159746E+03 0.13143733975E+03 0.15519367968E+03
 0.17466586990E+03 0.18847269899E+03 0.19644182817E+03 0.19644182817E+03 0.19116654277E+03
 0.18023580256E+03 0.16349270564E+03 0.14173280222E+03 0.11697637581E+03 0.92032657933E+02
 0.69594199087E+02 0.51380139199E+02 0.37758742651E+02 0.27951452587E+02 0.20756677851E+02
 0.15526613073E+02 0.11768705620E+02 0.90529870895E+01 0.70571169631E+01 0.55623311358E+01
 0.44293587187E+01 0.35710229657E+01 0.29300757989E+01 0.24653291858E+01 0.21451449057E+01
 0.19454697641E+01 0.18498348382E+01 0.18498349624E+01 0.19454700528E+01 0.21451451632E+01
 0.24653292342E+01 0.29300755985E+01 0.35710226459E+01 0.44293584970E+01 0.55623311752E+01
 0.70571172594E+01 0.90529874655E+01 0.11768705836E+02 0.15526612990E+02 0.20756677531E+02
 0.27951452266E+02 0.37758742581E+02 0.51380139441E+02 0.69594199392E+02 0.92032657800E+02
 0.11697637473E+03 0.14173279995E+03 0.16349270244E+03 0.18023579918E+03 0.19116654018E+03
 0.19644182720E+03 0.18847269899E+03 0.18023580256E+03 0.16628088823E+03 0.14704876622E+03
 0.12405118671E+03 0.99744293147E+02 0.76835011190E+02 0.57412518574E+02 0.42374243463E+02
 0.31390720123E+02 0.23363136490E+02 0.17451478182E+02 0.13176693993E+02 0.10089733527E+02
 0.78322350101E+01 0.61501588427E+01 0.48772352828E+01 0.39089346203E+01 0.31783115075E+01
 0.26389951631E+01 0.22560245049E+01 0.20023540697E+01 0.18582378641E+01 0.18115622203E+01
 0.18582382543E+01 0.20023545858E+01 0.22560247932E+01 0.26389950178E+01 0.31783110136E+01
 0.39089341070E+01 0.48772351115E+01 0.61501591631E+01 0.78322356456E+01 0.10089734072E+02
 0.13176694073E+02 0.17451477710E+02 0.23363135756E+02 0.31390719627E+02 0.42374243576E+02
 0.57412519218E+02 0.76835011757E+02 0.99744292732E+02 0.12405118458E+03 0.14704876229E+03
 0.16628088326E+03 0.18023579793E+03 0.18847269619E+03 0.19116654018E+03 0.17466586990E+03
 0.16349270564E+03 0.14704876622E+03 0.12648018235E+03 0.10382733648E+03 0.81583729129E+02
 0.61947973328E+02 0.46178985672E+02 0.34371990856E+02 0.25706981399E+02 0.19248358051E+02
 0.14523567339E+02 0.11095810153E+02 0.85905074132E+01 0.67286895778E+01 0.53212734512E+01
 0.42473231695E+01 0.34300455945E+01 0.28178058291E+01 0.23726227202E+01 0.20650303697E+01
 0.18726682458E+01 0.17803384382E+01 0.17803386798E+01 0.18726688076E+01 0.20650308698E+01
 0.23726228114E+01 0.28178054339E+01 0.34300449665E+01 0.42473227364E+01 0.53212735335E+01
 0.67286901629E+01 0.85905081376E+01 0.11095810517E+02 0.14523567031E+02 0.19248357177E+02
 0.25706980461E+02 0.34371990465E+02 0.46178986144E+02 0.61947974412E+02 0.81583730046E+02
 0.10382733628E+03 0.12648018044E+03 0.14704876276E+03 0.16349270159E+03 0.17466586665E+03
 0.18023579793E+03 0.18023579918E+03 0.15519367968E+03 0.14173280222E+03 0.12405118671E+03
 0.10382733648E+03 0.83236752819E+02 0.64383235300E+02 0.48693935339E+02 0.36591250938E+02
 0.27575876798E+02 0.20772676204E+02 0.15716715786E+02 0.12013564544E+02 0.92958450810E+01
 0.72745156400E+01 0.57456244727E+01 0.45752842549E+01 0.36780234444E+01 0.29973698929E+01
 0.24927467017E+01 0.21328508568E+01 0.18933936891E+01 0.17568129295E+01 0.17124725778E+01
 0.17568132838E+01 0.18933941616E+01 0.21328511287E+01 0.24927465809E+01 0.29973694454E+01
 0.36780229593E+01 0.45752840624E+01 0.57456247249E+01 0.72745161957E+01 0.92958455737E+01
 0.12013564602E+02 0.15716715277E+02 0.20772675349E+02 0.27575876085E+02 0.36591250857E+02
 0.48693936095E+02 0.64383236667E+02 0.83236754227E+02 0.10382733730E+03 0.12405118659E+03
 0.14173280127E+03 0.15519367844E+03 0.16349270159E+03 0.16628088326E+03 0.16349270244E+03
 0.13143733975E+03 0.11697637581E+03 0.99744293147E+02 0.81583729129E+02 0.64383235300E+02
 0.49573994975E+02 0.37779450660E+02 0.28783483545E+02 0.21883991758E+02 0.16659001350E+02
 0.12779055233E+02 0.99068833753E+01 0.77605173916E+01 0.61319207223E+01 0.48800570427E+01
 0.39134510638E+01 0.31719599642E+01 0.26130961076E+01 0.22043575396E+01 0.19202362166E+01
 0.17415252891E+01 0.16553766279E+01 0.16553767097E+01 0.17415254843E+01 0.19202364047E+01
 0.22043576015E+01 0.26130959975E+01 0.31719597388E+01 0.39134508520E+01 0.48800569714E+01
 0.61319208412E+01 0.77605176397E+01 0.99068836091E+01 0.12779055305E+02 0.16659001195E+02
 0.21883991450E+02 0.28783483284E+02 0.37779450715E+02 0.49573995576E+02 0.64383236558E+02
 0.81583730987E+02 0.99744295384E+02 0.11697637810E+03 0.13143734172E+03 0.14173280127E+03
 0.14704876276E+03 0.14704876229E+03 0.14173279995E+03 0.10592159746E+03 0.92032657933E+02
 0.76835011190E+02 0.61947973328E+02 0.48693935339E+02 0.37779450660E+02 0.29201704726E+02
 0.22470597196E+02 0.17264298592E+02 0.13330851526E+02 0.10381563832E+02 0.81581312790E+01
 0.64604189651E+01 0.51476524826E+01 0.41263453640E+01 0.33346482726E+01 0.27292213084E+01
 0.22772063840E+01 0.19525150737E+01 0.17348970741E+01 0.16099832381E+01 0.15692776167E+01
 0.16099831354E+01 0.17348969503E+01 0.19525150306E+01 0.22772064636E+01 0.27292214539E+01
 0.33346483617E+01 0.41263452978E+01 0.51476522721E+01 0.64604187498E+01 0.81581312546E+01
 0.10381564121E+02 0.13330852075E+02 0.17264299167E+02 0.22470597514E+02 0.29201704645E+02
 0.37779450339E+02 0.48693935239E+02 0.61947974037E+02 0.76835013123E+02 0.92032661055E+02
 0.10592160119E+03 0.11697637810E+03 0.12405118659E+03 0.12648018044E+03 0.12405118458E+03
 0.11697637473E+03 0.81577445590E+02 0.69594199087E+02 0.57412518574E+02 0.46178985672E+02
 0.36591250938E+02 0.28783483545E+02 0.22470597196E+02 0.17473144021E+02 0.13620243807E+02
 0.10683219487E+02 0.84407762299E+01 0.67119134127E+01 0.53639791433E+01 0.43062439358E+01
 0.34777525795E+01 0.28358256457E+01 0.23481001137E+01 0.19885296013E+01 0.17364221657E+01
 0.15765085247E+01 0.14989329969E+01 0.14989328285E+01 0.15765081372E+01 0.17364218320E+01
 0.19885295626E+01 0.23481004089E+01 0.28358260741E+01 0.34777528289E+01 0.43062437989E+01
 0.53639786824E+01 0.67119129563E+01 0.84407761852E+01 0.10683220072E+02 0.13620244872E+02
 0.17473145079E+02 0.22470597683E+02 0.28783483167E+02 0.36591249910E+02 0.46178984683E+02
 0.57412518473E+02 0.69594200428E+02 0.81577448280E+02 0.92032661055E+02 0.99744295384E+02
 0.10382733730E+03 0.10382733628E+03 0.99744292732E+02 0.92032657800E+02 0.60765036953E+02
 0.51380139199E+02 0.42374243463E+02 0.34371990856E+02 0.27575876798E+02 0.21883991758E+02
 0.17264298592E+02 0.13620243807E+02 0.10786749416E+02 0.85877710871E+01 0.68701432088E+01
 0.55163584813E+01 0.44432225141E+01 0.35935762594E+01 0.29270800150E+01 0.24128017632E+01
 0.20254429371E+01 0.17444362005E+01 0.15541346675E+01 0.14439160217E+01 0.14078092057E+01
 0.14439156489E+01 0.15541341710E+01 0.17444359162E+01 0.20254430664E+01 0.24128022345E+01
 0.29270805206E+01 0.35935764506E+01 0.44432222354E+01 0.55163578953E+01 0.68701427214E+01
 0.85877711077E+01 0.10786750089E+02 0.13620244879E+02 0.17264299513E+02 0.21883991969E+02
 0.27575876053E+02 0.34371989395E+02 0.42374241919E+02 0.51380138280E+02 0.60765037070E+02
 0.69594200428E+02 0.76835013123E+02 0.81583730987E+02 0.83236754227E+02 0.81583730046E+02
 0.76835011757E+02 0.69594199392E+02 0.44592517489E+02 0.37758742651E+02 0.31390720123E+02
 0.25706981399E+02 0.20772676204E+02 0.16659001350E+02 0.13330851526E+02 0.10683219487E+02
 0.85877710871E+01 0.69241730095E+01 0.55951547767E+01 0.45290577958E+01 0.36752197668E+01
 0.29972539743E+01 0.24666836622E+01 0.20596781907E+01 0.17563401179E+01 0.15410899327E+01
 0.14029835020E+01 0.13354244869E+01 0.13354243349E+01 0.14029831421E+01 0.15410895941E+01
 0.17563400215E+01 0.20596784104E+01 0.24666840732E+01 0.29972543222E+01 0.36752198178E+01
 0.45290574810E+01 0.55951542435E+01 0.69241725460E+01 0.85877709593E+01 0.10683219779E+02
 0.13330852077E+02 0.16659001818E+02 0.20772676232E+02 0.25706980791E+02 0.31390718932E+02
 0.37758741146E+02 0.44592516019E+02 0.51380138280E+02 0.57412518473E+02 0.61947974037E+02
 0.64383236558E+02 0.64383236667E+02 0.61947974412E+02 0.57412519218E+02 0.51380139441E+02
 0.32823909221E+02 0.27951452587E+02 0.23363136490E+02 0.19248358051E+02 0.15716715786E+02
 0.12779055233E+02 0.10381563832E+02 0.84407762299E+01 0.68701432088E+01 0.55951547767E+01
 0.45583049631E+01 0.37174520713E+01 0.30415172261E+01 0.25054271122E+01 0.20875047178E+01
 0.17690466206E+01 0.15349396781E+01 0.13742459782E+01 0.12801263792E+01 0.12490960790E+01
 0.12801262954E+01 0.13742458543E+01 0.15349395811E+01 0.17690466080E+01 0.20875048062E+01
 0.25054272617E+01 0.30415173491E+01 0.37174520657E+01 0.45583047582E+01 0.55951543741E+01
 0.68701426968E+01 0.84407757605E+01 0.10381563562E+02 0.12779055250E+02 0.15716716049E+02
 0.19248358380E+02 0.23363136616E+02 0.27951452253E+02 0.32823908299E+02 0.37758741146E+02
 0.42374241919E+02 0.46178984683E+02 0.48693935239E+02 0.49573995576E+02 0.48693936095E+02
 0.46178986144E+02 0.42374243576E+02 0.37758742581E+02 0.24322896192E+02 0.20756677851E+02
 0.17451478182E+02 0.14523567339E+02 0.12013564544E+02 0.99068833753E+01 0.81581312790E+01
 0.67119134127E+01 0.55163584813E+01 0.45290577958E+01 0.37174520713E+01 0.30566484707E+01
 0.25257031723E+01 0.21056768343E+01 0.17795428005E+01 0.15330283652E+01 0.13554654289E+01
 0.12399954479E+01 0.11829783460E+01 0.11829784035E+01 0.12399955779E+01 0.13554655337E+01
 0.15330283613E+01 0.17795426796E+01 0.21056766723E+01 0.25257030761E+01 0.30566484944E+01
 0.37174521603E+01 0.45290578013E+01 0.55163582492E+01 0.67119128978E+01 0.81581306135E+01
 0.99068828375E+01 0.12013564429E+02 0.14523567790E+02 0.17451479085E+02 0.20756678851E+02
 0.24322896844E+02 0.27951452253E+02 0.31390718932E+02 0.34371989395E+02 0.36591249910E+02
 0.37779450339E+02 0.37779450715E+02 0.36591250857E+02 0.34371990465E+02 0.31390719627E+02
 0.27951452266E+02 0.18089924651E+02 0.15526613073E+02 0.13176693993E+02 0.11095810153E+02
 0.92958450810E+01 0.77605173916E+01 0.64604189651E+01 0.53639791433E+01 0.44432225141E+01
 0.36752197668E+01 0.30415172261E+01 0.25257031723E+01 0.21119935586E+01 0.17854466582E+01
 0.15329810384E+01 0.13444413745E+01 0.12130880000E+01 0.11352626023E+01 0.11094437815E+01
 0.11352627984E+01 0.12130882599E+01 0.13444415184E+01 0.15329809563E+01 0.17854463851E+01
 0.21119932580E+01 0.25257030354E+01 0.30415173465E+01 0.36752200694E+01 0.44432227877E+01
 0.53639791658E+01 0.64604186509E+01 0.77605168729E+01 0.92958446682E+01 0.11095810185E+02
 0.13176694660E+02 0.15526614302E+02 0.18089926128E+02 0.20756678851E+02 0.23363136616E+02
 0.25706980791E+02 0.27575876053E+02 0.28783483167E+02 0.29201704645E+02 0.28783483284E+02
 0.27575876085E+02 0.25706980461E+02 0.23363135756E+02 0.20756677531E+02 0.13600650469E+02
 0.11768705620E+02 0.10089733527E+02 0.85905074132E+01 0.72745156400E+01 0.61319207223E+01
 0.51476524826E+01 0.43062439358E+01 0.35935762594E+01 0.29972539743E+01 0.25054271122E+01
 0.21056768343E+01 0.17854466582E+01 0.15331598293E+01 0.13394167602E+01 0.11977170414E+01
 0.11044118967E+01 0.10579680660E+01 0.10579681648E+01 0.11044121295E+01 0.11977172564E+01
 0.13394168117E+01 0.15331596712E+01 0.17854463808E+01 0.21056766202E+01 0.25054271345E+01
 0.29972542932E+01 0.35935767793E+01 0.43062444491E+01 0.51476527807E+01 0.61319207134E+01
 0.72745154100E+01 0.85905071942E+01 0.10089733590E+02 0.11768706145E+02 0.13600651467E+02
 0.15526614302E+02 0.17451479085E+02 0.19248358380E+02 0.20772676232E+02 0.21883991969E+02
 0.22470597683E+02 0.22470597514E+02 0.21883991450E+02 0.20772675349E+02 0.19248357177E+02
 0.17451477710E+02 0.15526612990E+02 0.10375996941E+02 0.90529870895E+01 0.78322350101E+01
 0.67286895778E+01 0.57456244727E+01 0.48800570427E+01 0.41263453640E+01 0.34777525795E+01
 0.29270800150E+01 0.24666836622E+01 0.20875047178E+01 0.17795428005E+01 0.15329810384E+01
 0.13394167602E+01 0.11927300530E+01 0.10892907378E+01 0.10274934203E+01 0.10069073457E+01
 0.10274935374E+01 0.10892909030E+01 0.11927301686E+01 0.13394167587E+01 0.15329809274E+01
 0.17795426680E+01 0.20875046924E+01 0.24666838481E+01 0.29270804332E+01 0.34777531478E+01
 0.41263459264E+01 0.48800574371E+01 0.57456246036E+01 0.67286894600E+01 0.78322347643E+01
 0.90529868924E+01 0.10375996954E+02 0.11768706145E+02 0.13176694660E+02 0.14523567790E+02
 0.15716716049E+02 0.16659001818E+02 0.17264299513E+02 0.17473145079E+02 0.17264299167E+02
 0.16659001195E+02 0.15716715277E+02 0.14523567031E+02 0.13176694073E+02 0.11768705836E+02
 0.80313796911E+01 0.70571169631E+01 0.61501588427E+01 0.53212734512E+01 0.45752842549E+01
 0.39134510638E+01 0.33346482726E+01 0.28358256457E+01 0.24128017632E+01 0.20596781907E+01
 0.17690466206E+01 0.15330283652E+01 0.13444413745E+01 0.11977170414E+01 0.10892907378E+01
 0.10174030640E+01 0.98148955917E+00 0.98148959673E+00 0.10174031600E+01 0.10892908500E+01
 0.11977171231E+01 0.13444413987E+01 0.15330283408E+01 0.17690465924E+01 0.20596782217E+01
 0.24128019052E+01 0.28358259106E+01 0.33346486180E+01 0.39134514005E+01 0.45752844750E+01
 0.53212734662E+01 0.61501586164E+01 0.70571165259E+01 0.80313791294E+01 0.90529868924E+01
 0.10089733590E+02 0.11095810185E+02 0.12013564429E+02 0.12779055250E+02 0.13330852077E+02
 0.13620244879E+02 0.13620244872E+02 0.13330852075E+02 0.12779055305E+02 0.12013564602E+02
 0.11095810517E+02 0.10089734072E+02 0.90529874655E+01 0.62936125235E+01 0.55623311358E+01
 0.48772352828E+01 0.42473231695E+01 0.36780234444E+01 0.31719599642E+01 0.27292213084E+01
 0.23481001137E+01 0.20254429371E+01 0.17563401179E+01 0.15349396781E+01 0.13554654289E+01
 0.12130880000E+01 0.11044118967E+01 0.10274934203E+01 0.98148955917E+00 0.96616446601E+00
 0.98148961587E+00 0.10274935157E+01 0.11044119994E+01 0.12130880741E+01 0.13554654448E+01
 0.15349396237E+01 0.17563400042E+01 0.20254427957E+01 0.23480999853E+01 0.27292212254E+01
 0.31719599333E+01 0.36780234379E+01 0.42473231285E+01 0.48772351334E+01 0.55623308122E+01
 0.62936119906E+01 0.70571165259E+01 0.78322347643E+01 0.85905071942E+01 0.92958446682E+01
 0.99068828375E+01 0.10381563562E+02 0.10683219779E+02 0.10786750089E+02 0.10683220072E+02
 0.10381564121E+02 0.99068836091E+01 0.92958455737E+01 0.85905081376E+01 0.78322356456E+01
 0.70571172594E+01 0.49839746991E+01 0.44293587187E+01 0.39089346203E+01 0.34300455945E+01
 0.29973698929E+01 0.26130961076E+01 0.22772063840E+01 0.19885296013E+01 0.17444362005E+01
 0.15410899327E+01 0.13742459782E+01 0.12399954479E+01 0.11352626023E+01 0.10579680660E+01
 0.10069073457E+01 0.98148959673E+00 0.98148961587E+00 0.10069073981E+01 0.10579681354E+01
 0.11352626608E+01 0.12399954578E+01 0.13742459010E+01 0.15410897424E+01 0.17444358968E+01
 0.19885292163E+01 0.22772059761E+01 0.26130957427E+01 0.29973696197E+01 0.34300454232E+01
 0.39089345147E+01 0.44293586062E+01 0.49839744948E+01 0.55623308122E+01 0.61501586164E+01
 0.67286894600E+01 0.72745154100E+01 0.77605168729E+01 0.81581306135E+01 0.84407757605E+01
 0.85877709593E+01 0.85877711077E+01 0.84407761852E+01 0.81581312546E+01 0.77605176397E+01
 0.72745161957E+01 0.67286901629E+01 0.61501591631E+01 0.55623311752E+01 0.39905783304E+01
 0.35710229657E+01 0.31783115075E+01 0.28178058291E+01 0.24927467017E+01 0.22043575396E+01
 0.19525150737E+01 0.17364221657E+01 0.15541346675E+01 0.14029835020E+01 0.12801263792E+01
 0.11829783460E+01 0.11094437815E+01 0.10579681648E+01 0.10274935374E+01 0.10174031600E+01
 0.10274935157E+01 0.10579681354E+01 0.11094437588E+01 0.11829783267E+01 0.12801263336E+01
 0.14029833824E+01 0.15541344321E+01 0.17364218065E+01 0.19525146313E+01 0.22043570958E+01
 0.24927463498E+01 0.28178056361E+01 0.31783114859E+01 0.35710230697E+01 0.39905784779E+01
 0.44293586062E+01 0.48772351334E+01 0.53212734662E+01 0.57456246036E+01 0.61319207134E+01
 0.64604186509E+01 0.67119128978E+01 0.68701426968E+01 0.69241725460E+01 0.68701427214E+01
 0.67119129563E+01 0.64604187498E+01 0.61319208412E+01 0.57456247249E+01 0.53212735335E+01
 0.48772351115E+01 0.44293584970E+01 0.32424430778E+01 0.29300757989E+01 0.26389951631E+01
 0.23726227202E+01 0.21328508568E+01 0.19202362166E+01 0.17348970741E+01 0.15765085247E+01
 0.14439160217E+01 0.13354244869E+01 0.12490960790E+01 0.11829784035E+01 0.11352627984E+01
 0.11044121295E+01 0.10892909030E+01 0.10892908500E+01 0.11044119994E+01 0.11352626608E+01
 0.11829783267E+01 0.12490960890E+01 0.13354245503E+01 0.14439160648E+01 0.15765084769E+01
 0.17348969128E+01 0.19202359867E+01 0.21328506532E+01 0.23726226426E+01 0.26389952691E+01
 0.29300760790E+01 0.32424434687E+01 0.35710230697E+01 0.39089345147E+01 0.42473231285E+01
 0.45752844750E+01 0.48800574371E+01 0.51476527807E+01 0.53639791658E+01 0.55163582492E+01
 0.55951543741E+01 0.55951542435E+01 0.55163578953E+01 0.53639786824E+01 0.51476522721E+01
 0.48800569714E+01 0.45752840624E+01 0.42473227364E+01 0.39089341070E+01 0.35710226459E+01
 0.26910073524E+01 0.24653291858E+01 0.22560245049E+01 0.20650303697E+01 0.18933936891E+01
 0.17415252891E+01 0.16099832381E+01 0.14989329969E+01 0.14078092057E+01 0.13354243349E+01
 0.12801262954E+01 0.12399955779E+01 0.12130882599E+01 0.11977172564E+01 0.11927301686E+01
 0.11977171231E+01 0.12130880741E+01 0.12399954578E+01 0.12801263336E+01 0.13354245503E+01
 0.14078095363E+01 0.14989333359E+01 0.16099834931E+01 0.17415254301E+01 0.18933937608E+01
 0.20650304618E+01 0.22560246999E+01 0.24653295160E+01 0.26910077892E+01 0.29300760790E+01
 0.31783114859E+01 0.34300454232E+01 0.36780234379E+01 0.39134514005E+01 0.41263459264E+01
 0.43062444491E+01 0.44432227877E+01 0.45290578013E+01 0.45583047582E+01 0.45290574810E+01
 0.44432222354E+01 0.43062437989E+01 0.41263452978E+01 0.39134508520E+01 0.36780229593E+01
 0.34300449665E+01 0.31783110136E+01 0.29300755985E+01 0.22999776055E+01 0.21451449057E+01
 0.20023540697E+01 0.18726682458E+01 0.17568129295E+01 0.16553766279E+01 0.15692776167E+01
 0.14989328285E+01 0.14439156489E+01 0.14029831421E+01 0.13742458543E+01 0.13554655337E+01
 0.13444415184E+01 0.13394168117E+01 0.13394167587E+01 0.13444413987E+01 0.13554654448E+01
 0.13742459010E+01 0.14029833824E+01 0.14439160648E+01 0.14989333359E+01 0.15692781085E+01
 0.16553770245E+01 0.17568132111E+01 0.18726684507E+01 0.20023542620E+01 0.21451451338E+01
 0.22999778762E+01 0.24653295160E+01 0.26389952691E+01 0.28178056361E+01 0.29973696197E+01
 0.31719599333E+01 0.33346486180E+01 0.34777531478E+01 0.35935767793E+01 0.36752200694E+01
 0.37174521603E+01 0.37174520657E+01 0.36752198178E+01 0.35935764506E+01 0.34777528289E+01
 0.33346483617E+01 0.31719597388E+01 0.29973694454E+01 0.28178054339E+01 0.26389950178E+01
 0.24653292342E+01 0.20413373223E+01 0.19454697641E+01 0.18582378641E+01 0.17803384382E+01
 0.17124725778E+01 0.16553767097E+01 0.16099831354E+01 0.15765081372E+01 0.15541341710E+01
 0.15410895941E+01 0.15349395811E+01 0.15330283613E+01 0.15329809563E+01 0.15331596712E+01
 0.15329809274E+01 0.15330283408E+01 0.15349396237E+01 0.15410897424E+01 0.15541344321E+01
 0.15765084769E+01 0.16099834931E+01 0.16553770245E+01 0.17124728127E+01 0.17803385889E+01
 0.18582379505E+01 0.19454698096E+01 0.20413373360E+01 0.21451451338E+01 0.22560246999E+01
 0.23726226426E+01 0.24927463498E+01 0.26130957427E+01 0.27292212254E+01 0.28358259106E+01
 0.29270804332E+01 0.29972542932E+01 0.30415173465E+01 0.30566484944E+01 0.30415173491E+01
 0.29972543222E+01 0.29270805206E+01 0.28358260741E+01 0.27292214539E+01 0.26130959975E+01
 0.24927465809E+01 0.23726228114E+01 0.22560247932E+01 0.21451451632E+01 0.18945824906E+01
 0.18498348382E+01 0.18115622203E+01 0.17803386798E+01 0.17568132838E+01 0.17415254843E+01
 0.17348969503E+01 0.17364218320E+01 0.17444359162E+01 0.17563400215E+01 0.17690466080E+01
 0.17795426796E+01 0.17854463851E+01 0.17854463808E+01 0.17795426680E+01 0.17690465924E+01
 0.17563400042E+01 0.17444358968E+01 0.17364218065E+01 0.17348969128E+01 0.17415254301E+01
 0.17568132111E+01 0.17803385889E+01 0.18115621099E+01 0.18498347008E+01 0.18945823107E+01
 0.19454698096E+01 0.20023542620E+01 0.20650304618E+01 0.21328506532E+01 0.22043570958E+01
 0.22772059761E+01 0.23480999853E+01 0.24128019052E+01 0.24666838481E+01 0.25054271345E+01
 0.25257030354E+01 0.25257030761E+01 0.25054272617E+01 0.24666840732E+01 0.24128022345E+01
 0.23481004089E+01 0.22772064636E+01 0.22043576015E+01 0.21328511287E+01 0.20650308698E+01
 0.20023545858E+01 0.19454700528E+01 0.18470882041E+01 0.18498349624E+01 0.18582382543E+01
 0.18726688076E+01 0.18933941616E+01 0.19202364047E+01 0.19525150306E+01 0.19885295626E+01
 0.20254430664E+01 0.20596784104E+01 0.20875048062E+01 0.21056766723E+01 0.21119932580E+01
 0.21056766202E+01 0.20875046924E+01 0.20596782217E+01 0.20254427957E+01 0.19885292163E+01
 0.19525146313E+01 0.19202359867E+01 0.18933937608E+01 0.18726684507E+01 0.18582379505E+01
 0.18498347008E+01 0.18470879585E+01 0.18498347008E+01 0.18582379505E+01 0.18726684507E+01
 0.18933937608E+01 0.19202359867E+01 0.19525146313E+01 0.19885292163E+01 0.20254427957E+01
 0.20596782217E+01 0.20875046924E+01 0.21056766202E+01 0.21119932580E+01 0.21056766723E+01
 0.20875048062E+01 0.20596784104E+01 0.20254430664E+01 0.19885295626E+01 0.19525150306E+01
 0.19202364047E+01 0.18933941616E+01 0.18726688076E+01 0.18582382543E+01 0.18498349624E+01
 0.18945824906E+01 0.19454700528E+01 0.20023545858E+01 0.20650308698E+01 0.21328511287E+01
 0.22043576015E+01 0.22772064636E+01 0.23481004089E+01 0.24128022345E+01 0.24666840732E+01
 0.25054272617E+01 0.25257030761E+01 0.25257030354E+01 0.25054271345E+01 0.24666838481E+01
 0.24128019052E+01 0.23480999853E+01 0.22772059761E+01 0.22043570958E+01 0.21328506532E+01
 0.20650304618E+01 0.20023542620E+01 0.19454698096E+01 0.18945823107E+01 0.18498347008E+01
 0.18115621099E+01 0.17803385889E+01 0.17568132111E+01 0.17415254301E+01 0.17348969128E+01
 0.17364218065E+01 0.17444358968E+01 0.17563400042E+01 0.17690465924E+01 0.17795426680E+01
 0.17854463808E+01 0.17854463851E+01 0.17795426796E+01 0.17690466080E+01 0.17563400215E+01
 0.17444359162E+01 0.17364218320E+01 0.17348969503E+01 0.17415254843E+01 0.17568132838E+01
 0.17803386798E+01 0.18115622203E+01 0.18498348382E+01 0.20413373223E+01 0.21451451632E+01
 0.22560247932E+01 0.23726228114E+01 0.24927465809E+01 0.26130959975E+01 0.27292214539E+01
 0.28358260741E+01 0.29270805206E+01 0.29972543222E+01 0.30415173491E+01 0.30566484944E+01
 0.30415173465E+01 0.29972542932E+01 0.29270804332E+01 0.28358259106E+01 0.27292212254E+01
 0.26130957427E+01 0.24927463498E+01 0.23726226426E+01 0.22560246999E+01 0.21451451338E+01
 0.20413373360E+01 0.19454698096E+01 0.18582379505E+01 0.17803385889E+01 0.17124728127E+01
 0.16553770245E+01 0.16099834931E+01 0.15765084769E+01 0.15541344321E+01 0.15410897424E+01
 0.15349396237E+01 0.15330283408E+01 0.15329809274E+01 0.15331596712E+01 0.15329809563E+01
 0.15330283613E+01 0.15349395811E+01 0.15410895941E+01 0.15541341710E+01 0.15765081372E+01
 0.16099831354E+01 0.16553767097E+01 0.17124725778E+01 0.17803384382E+01 0.18582378641E+01
 0.19454697641E+01 0.22999776055E+01 0.24653292342E+01 0.26389950178E+01 0.28178054339E+01
 0.29973694454E+01 0.31719597388E+01 0.33346483617E+01 0.34777528289E+01 0.35935764506E+01
 0.36752198178E+01 0.37174520657E+01 0.37174521603E+01 0.36752200694E+01 0.35935767793E+01
 0.34777531478E+01 0.33346486180E+01 0.31719599333E+01 0.29973696197E+01 0.28178056361E+01
 0.26389952691E+01 0.24653295160E+01 0.22999778762E+01 0.21451451338E+01 0.20023542620E+01
 0.18726684507E+01 0.17568132111E+01 0.16553770245E+01 0.15692781085E+01 0.14989333359E+01
 0.14439160648E+01 0.14029833824E+01 0.13742459010E+01 0.13554654448E+01 0.13444413987E+01
 0.13394167587E+01 0.13394168117E+01 0.13444415184E+01 0.13554655337E+01 0.13742458543E+01
 0.14029831421E+01 0.14439156489E+01 0.14989328285E+01 0.15692776167E+01 0.16553766279E+01
 0.17568129295E+01 0.18726682458E+01 0.20023540697E+01 0.21451449057E+01 0.26910073524E+01
 0.29300755985E+01 0.31783110136E+01 0.34300449665E+01 0.36780229593E+01 0.39134508520E+01
 0.41263452978E+01 0.43062437989E+01 0.44432222354E+01 0.45290574810E+01 0.45583047582E+01
 0.45290578013E+01 0.44432227877E+01 0.43062444491E+01 0.41263459264E+01 0.39134514005E+01
 0.36780234379E+01 0.34300454232E+01 0.31783114859E+01 0.29300760790E+01 0.26910077892E+01
 0.24653295160E+01 0.22560246999E+01 0.20650304618E+01 0.18933937608E+01 0.17415254301E+01
 0.16099834931E+01 0.14989333359E+01 0.14078095363E+01 0.13354245503E+01 0.12801263336E+01
 0.12399954578E+01 0.12130880741E+01 0.11977171231E+01 0.11927301686E+01 0.11977172564E+01
 0.12130882599E+01 0.12399955779E+01 0.12801262954E+01 0.13354243349E+01 0.14078092057E+01
 0.14989329969E+01 0.16099832381E+01 0.17415252891E+01 0.18933936891E+01 0.20650303697E+01
 0.22560245049E+01 0.24653291858E+01 0.32424430778E+01 0.35710226459E+01 0.39089341070E+01
 0.42473227364E+01 0.45752840624E+01 0.48800569714E+01 0.51476522721E+01 0.53639786824E+01
 0.55163578953E+01 0.55951542435E+01 0.55951543741E+01 0.55163582492E+01 0.53639791658E+01
 0.51476527807E+01 0.48800574371E+01 0.45752844750E+01 0.42473231285E+01 0.39089345147E+01
 0.35710230697E+01 0.32424434687E+01 0.29300760790E+01 0.26389952691E+01 0.23726226426E+01
 0.21328506532E+01 0.19202359867E+01 0.17348969128E+01 0.15765084769E+01 0.14439160648E+01
 0.13354245503E+01 0.12490960890E+01 0.11829783267E+01 0.11352626608E+01 0.11044119994E+01
 0.10892908500E+01 0.10892909030E+01 0.11044121295E+01 0.11352627984E+01 0.11829784035E+01
 0.12490960790E+01 0.13354244869E+01 0.14439160217E+01 0.15765085247E+01 0.17348970741E+01
 0.19202362166E+01 0.21328508568E+01 0.23726227202E+01 0.26389951631E+01 0.29300757989E+01
 0.39905783304E+01 0.44293584970E+01 0.48772351115E+01 0.53212735335E+01 0.57456247249E+01
 0.61319208412E+01 0.64604187498E+01 0.67119129563E+01 0.68701427214E+01 0.69241725460E+01
 0.68701426968E+01 0.67119128978E+01 0.64604186509E+01 0.61319207134E+01 0.57456246036E+01
 0.53212734662E+01 0.48772351334E+01 0.44293586062E+01 0.39905784779E+01 0.35710230697E+01
 0.31783114859E+01 0.28178056361E+01 0.24927463498E+01 0.22043570958E+01 0.19525146313E+01
 0.17364218065E+01 0.15541344321E+01 0.14029833824E+01 0.12801263336E+01 0.11829783267E+01
 0.11094437588E+01 0.10579681354E+01 0.10274935157E+01 0.10174031600E+01 0.10274935374E+01
 0.10579681648E+01 0.11094437815E+01 0.11829783460E+01 0.12801263792E+01 0.14029835020E+01
 0.15541346675E+01 0.17364221657E+01 0.19525150737E+01 0.22043575396E+01 0.24927467017E+01
 0.28178058291E+01 0.31783115075E+01 0.35710229657E+01 0.49839746991E+01 0.55623311752E+01
 0.61501591631E+01 0.67286901629E+01 0.72745161957E+01 0.77605176397E+01 0.81581312546E+01
 0.84407761852E+01 0.85877711077E+01 0.85877709593E+01 0.84407757605E+01 0.81581306135E+01
 0.77605168729E+01 0.72745154100E+01 0.67286894600E+01 0.61501586164E+01 0.55623308122E+01
 0.49839744948E+01 0.44293586062E+01 0.39089345147E+01 0.34300454232E+01 0.29973696197E+01
 0.26130957427E+01 0.22772059761E+01 0.19885292163E+01 0.17444358968E+01 0.15410897424E+01
 0.13742459010E+01 0.12399954578E+01 0.11352626608E+01 0.10579681354E+01 0.10069073981E+01
 0.98148961587E+00 0.98148959673E+00 0.10069073457E+01 0.10579680660E+01 0.11352626023E+01
 0.12399954479E+01 0.13742459782E+01 0.15410899327E+01 0.17444362005E+01 0.19885296013E+01
 0.22772063840E+01 0.26130961076E+01 0.29973698929E+01 0.34300455945E+01 0.39089346203E+01
 0.44293587187E+01 0.62936125235E+01 0.70571172594E+01 0.78322356456E+01 0.85905081376E+01
 0.92958455737E+01 0.99068836091E+01 0.10381564121E+02 0.10683220072E+02 0.10786750089E+02
 0.10683219779E+02 0.10381563562E+02 0.99068828375E+01 0.92958446682E+01 0.85905071942E+01
 0.78322347643E+01 0.70571165259E+01 0.62936119906E+01 0.55623308122E+01 0.48772351334E+01
 0.42473231285E+01 0.36780234379E+01 0.31719599333E+01 0.27292212254E+01 0.23480999853E+01
 0.20254427957E+01 0.17563400042E+01 0.15349396237E+01 0.13554654448E+01 0.12130880741E+01
 0.11044119994E+01 0.10274935157E+01 0.98148961587E+00 0.96616446601E+00 0.98148955917E+00
 0.10274934203E+01 0.11044118967E+01 0.12130880000E+01 0.13554654289E+01 0.15349396781E+01
 0.17563401179E+01 0.20254429371E+01 0.23481001137E+01 0.27292213084E+01 0.31719599642E+01
 0.36780234444E+01 0.42473231695E+01 0.48772352828E+01 0.55623311358E+01 0.80313796911E+01
 0.90529874655E+01 0.10089734072E+02 0.11095810517E+02 0.12013564602E+02 0.12779055305E+02
 0.13330852075E+02 0.13620244872E+02 0.13620244879E+02 0.13330852077E+02 0.12779055250E+02
 0.12013564429E+02 0.11095810185E+02 0.10089733590E+02 0.90529868924E+01 0.80313791294E+01
 0.70571165259E+01 0.61501586164E+01 0.53212734662E+01 0.45752844750E+01 0.39134514005E+01
 0.33346486180E+01 0.28358259106E+01 0.24128019052E+01 0.20596782217E+01 0.17690465924E+01
 0.15330283408E+01 0.13444413987E+01 0.11977171231E+01 0.10892908500E+01 0.10174031600E+01
 0.98148959673E+00 0.98148955917E+00 0.10174030640E+01 0.10892907378E+01 0.11977170414E+01
 0.13444413745E+01 0.15330283652E+01 0.17690466206E+01 0.20596781907E+01 0.24128017632E+01
 0.28358256457E+01 0.33346482726E+01 0.39134510638E+01 0.45752842549E+01 0.53212734512E+01