   3   3   1   0
  0.8164348E+01  0.3259762E-09  0.3259762E-09  0.3259762E-09  0.5000000E-15
  1.000000000000000E-004
  CAR 
 unknown system                          
     24.14946722    -16.35604539  301      0.85879747      1.00000000
    -16.356  0.0000E+00  0.0000E+00  0.0000E+00  0.0000E+00
    -16.221  0.0000E+00  0.0000E+00  0.0000E+00  0.0000E+00
    -16.086  0.0000E+00  0.0000E+00  0.0000E+00  0.0000E+00
    -15.951  0.0000E+00  0.0000E+00  0.0000E+00  0.0000E+00
    -15.816  0.0000E+00  0.0000E+00  0.0000E+00  0.0000E+00
    -15.681  0.0000E+00  0.0000E+00  0.0000E+00  0.0000E+00
    -15.546  0.0000E+00  0.0000E+00  0.0000E+00  0.0000E+00
    -15.411  0.0000E+00  0.0000E+00  0.0000E+00  0.0000E+00
    -15.276  0.0000E+00  0.0000E+00  0.0000E+00  0.0000E+00
    -15.141  0.0000E+00  0.0000E+00  0.0000E+00  0.0000E+00
    -15.006  0.0000E+00  0.0000E+00  0.0000E+00  0.0000E+00
    -14.871  0.0000E+00  0.0000E+00  0.0000E+00  0.0000E+00
    -14.736  0.0000E+00  0.0000E+00  0.0000E+00  0.0000E+00
    -14.601  0.0000E+00  0.0000E+00  0.0000E+00  0.0000E+00
    -14.466  0.7621E-02  0.7621E-02  0.2913E-03  0.2914E-03
    -14.331  0.3215E-01  0.3215E-01  0.2602E-02  0.2602E-02
    -14.196  0.0000E+00  0.0000E+00  0.1010E-01  0.1010E-01
    -14.061  0.0000E+00  0.0000E+00  0.1010E-01  0.1010E-01
    -13.926  0.0000E+00  0.0000E+00  0.1010E-01  0.1010E-01
    -13.791  0.0000E+00  0.0000E+00  0.1010E-01  0.1010E-01
    -13.656  0.0000E+00  0.0000E+00  0.1010E-01  0.1010E-01
    -13.521  0.0000E+00  0.0000E+00  0.1010E-01  0.1010E-01
    -13.386  0.0000E+00  0.0000E+00  0.1010E-01  0.1010E-01
    -13.251  0.0000E+00  0.0000E+00  0.1010E-01  0.1010E-01
    -13.116  0.0000E+00  0.0000E+00  0.1010E-01  0.1010E-01
    -12.981  0.0000E+00  0.0000E+00  0.1010E-01  0.1010E-01
    -12.846  0.0000E+00  0.0000E+00  0.1010E-01  0.1010E-01
    -12.711  0.0000E+00  0.0000E+00  0.1010E-01  0.1010E-01
    -12.576  0.0000E+00  0.0000E+00  0.1010E-01  0.1010E-01
    -12.441  0.0000E+00  0.0000E+00  0.1010E-01  0.1010E-01
    -12.305  0.0000E+00  0.0000E+00  0.1010E-01  0.1010E-01
    -12.170  0.0000E+00  0.0000E+00  0.1010E-01  0.1010E-01
    -12.035  0.0000E+00  0.0000E+00  0.1010E-01  0.1010E-01
    -11.900  0.0000E+00  0.0000E+00  0.1010E-01  0.1010E-01
    -11.765  0.0000E+00  0.0000E+00  0.1010E-01  0.1010E-01
    -11.630  0.0000E+00  0.0000E+00  0.1010E-01  0.1010E-01
    -11.495  0.0000E+00  0.0000E+00  0.1010E-01  0.1010E-01
    -11.360  0.0000E+00  0.0000E+00  0.1010E-01  0.1010E-01
    -11.225  0.0000E+00  0.0000E+00  0.1010E-01  0.1010E-01
    -11.090  0.0000E+00  0.0000E+00  0.1010E-01  0.1010E-01
    -10.955  0.0000E+00  0.0000E+00  0.1010E-01  0.1010E-01
    -10.820  0.0000E+00  0.0000E+00  0.1010E-01  0.1010E-01
    -10.685  0.0000E+00  0.0000E+00  0.1010E-01  0.1010E-01
    -10.550  0.0000E+00  0.0000E+00  0.1010E-01  0.1010E-01
    -10.415  0.0000E+00  0.0000E+00  0.1010E-01  0.1010E-01
    -10.280  0.0000E+00  0.0000E+00  0.1010E-01  0.1010E-01
    -10.145  0.0000E+00  0.0000E+00  0.1010E-01  0.1010E-01
    -10.010  0.0000E+00  0.0000E+00  0.1010E-01  0.1010E-01
     -9.875  0.0000E+00  0.0000E+00  0.1010E-01  0.1010E-01
     -9.740  0.0000E+00  0.0000E+00  0.1010E-01  0.1010E-01
     -9.605  0.0000E+00  0.0000E+00  0.1010E-01  0.1010E-01
     -9.470  0.0000E+00  0.0000E+00  0.1010E-01  0.1010E-01
     -9.335  0.0000E+00  0.0000E+00  0.1010E-01  0.1010E-01
     -9.200  0.0000E+00  0.0000E+00  0.1010E-01  0.1010E-01
     -9.065  0.0000E+00  0.0000E+00  0.1010E-01  0.1010E-01
     -8.930  0.0000E+00  0.0000E+00  0.1010E-01  0.1010E-01
     -8.795  0.0000E+00  0.0000E+00  0.1010E-01  0.1010E-01
     -8.660  0.0000E+00  0.0000E+00  0.1010E-01  0.1010E-01
     -8.525  0.0000E+00  0.0000E+00  0.1010E-01  0.1010E-01
     -8.390  0.0000E+00  0.0000E+00  0.1010E-01  0.1010E-01
     -8.255  0.0000E+00  0.0000E+00  0.1010E-01  0.1010E-01
     -8.120  0.0000E+00  0.0000E+00  0.1010E-01  0.1010E-01
     -7.985  0.0000E+00  0.0000E+00  0.1010E-01  0.1010E-01
     -7.850  0.0000E+00  0.0000E+00  0.1010E-01  0.1010E-01
     -7.715  0.0000E+00  0.0000E+00  0.1010E-01  0.1010E-01
     -7.580  0.0000E+00  0.0000E+00  0.1010E-01  0.1010E-01
     -7.445  0.0000E+00  0.0000E+00  0.1010E-01  0.1010E-01
     -7.310  0.0000E+00  0.0000E+00  0.1010E-01  0.1010E-01
     -7.175  0.0000E+00  0.0000E+00  0.1010E-01  0.1010E-01
     -7.040  0.0000E+00  0.0000E+00  0.1010E-01  0.1010E-01
     -6.905  0.0000E+00  0.0000E+00  0.1010E-01  0.1010E-01
     -6.770  0.0000E+00  0.0000E+00  0.1010E-01  0.1010E-01
     -6.635  0.0000E+00  0.0000E+00  0.1010E-01  0.1010E-01
     -6.500  0.0000E+00  0.0000E+00  0.1010E-01  0.1010E-01
     -6.365  0.0000E+00  0.0000E+00  0.1010E-01  0.1010E-01
     -6.230  0.0000E+00  0.0000E+00  0.1010E-01  0.1010E-01
     -6.095  0.0000E+00  0.0000E+00  0.1010E-01  0.1010E-01
     -5.960  0.0000E+00  0.0000E+00  0.1010E-01  0.1010E-01
     -5.825  0.0000E+00  0.0000E+00  0.1010E-01  0.1010E-01
     -5.690  0.0000E+00  0.0000E+00  0.1010E-01  0.1010E-01
     -5.555  0.0000E+00  0.0000E+00  0.1010E-01  0.1010E-01
     -5.420  0.0000E+00  0.0000E+00  0.1010E-01  0.1010E-01
     -5.285  0.0000E+00  0.0000E+00  0.1010E-01  0.1010E-01
     -5.150  0.0000E+00  0.0000E+00  0.1010E-01  0.1010E-01
     -5.015  0.0000E+00  0.0000E+00  0.1010E-01  0.1010E-01
     -4.879  0.0000E+00  0.0000E+00  0.1010E-01  0.1010E-01
     -4.744  0.0000E+00  0.0000E+00  0.1010E-01  0.1010E-01
     -4.609  0.0000E+00  0.0000E+00  0.1010E-01  0.1010E-01
     -4.474  0.0000E+00  0.0000E+00  0.1010E-01  0.1010E-01
     -4.339  0.0000E+00  0.0000E+00  0.1010E-01  0.1010E-01
     -4.204  0.0000E+00  0.0000E+00  0.1010E-01  0.1010E-01
     -4.069  0.0000E+00  0.0000E+00  0.1010E-01  0.1010E-01
     -3.934  0.0000E+00  0.0000E+00  0.1010E-01  0.1010E-01
     -3.799  0.0000E+00  0.0000E+00  0.1010E-01  0.1010E-01
     -3.664  0.0000E+00  0.0000E+00  0.1010E-01  0.1010E-01
     -3.529  0.0000E+00  0.0000E+00  0.1010E-01  0.1010E-01
     -3.394  0.0000E+00  0.0000E+00  0.1010E-01  0.1010E-01
     -3.259  0.0000E+00  0.0000E+00  0.1010E-01  0.1010E-01
     -3.124  0.0000E+00  0.0000E+00  0.1010E-01  0.1010E-01
     -2.989  0.0000E+00  0.0000E+00  0.1010E-01  0.1010E-01
     -2.854  0.0000E+00  0.0000E+00  0.1010E-01  0.1010E-01
     -2.719  0.0000E+00  0.0000E+00  0.1010E-01  0.1010E-01
     -2.584  0.0000E+00  0.0000E+00  0.1010E-01  0.1010E-01
     -2.449  0.0000E+00  0.0000E+00  0.1010E-01  0.1010E-01
     -2.314  0.0000E+00  0.0000E+00  0.1010E-01  0.1010E-01
     -2.179  0.0000E+00  0.0000E+00  0.1010E-01  0.1010E-01
     -2.044  0.0000E+00  0.0000E+00  0.1010E-01  0.1010E-01
     -1.909  0.0000E+00  0.0000E+00  0.1010E-01  0.1010E-01
     -1.774  0.0000E+00  0.0000E+00  0.1010E-01  0.1010E-01
     -1.639  0.2724E-02  0.2724E-02  0.1022E-01  0.1022E-01
     -1.504  0.4901E-02  0.4901E-02  0.1076E-01  0.1076E-01
     -1.369  0.9180E-02  0.9180E-02  0.1160E-01  0.1160E-01
     -1.234  0.1364E-01  0.1364E-01  0.1326E-01  0.1326E-01
     -1.099  0.1063E-01  0.1063E-01  0.1534E-01  0.1534E-01
     -0.964  0.8862E-02  0.8862E-02  0.1666E-01  0.1666E-01
     -0.829  0.7204E-02  0.7204E-02  0.1774E-01  0.1774E-01
     -0.694  0.2957E-02  0.2957E-02  0.1872E-01  0.1872E-01
     -0.559  0.2410E-02  0.2410E-02  0.1908E-01  0.1908E-01
     -0.424  0.1490E-01  0.1490E-01  0.2041E-01  0.2041E-01
     -0.289  0.2238E-01  0.2238E-01  0.2266E-01  0.2266E-01
     -0.154  0.1915E-01  0.1915E-01  0.2570E-01  0.2570E-01
     -0.019  0.1848E-01  0.1848E-01  0.2823E-01  0.2823E-01
      0.116  0.1813E-01  0.1813E-01  0.3072E-01  0.3072E-01
      0.251  0.2138E-01  0.2138E-01  0.3329E-01  0.3329E-01
      0.386  0.1723E-01  0.1723E-01  0.3620E-01  0.3620E-01
      0.521  0.9860E-02  0.9860E-02  0.3806E-01  0.3806E-01
      0.656  0.1378E-01  0.1378E-01  0.3938E-01  0.3938E-01
      0.791  0.3181E-02  0.3181E-02  0.4018E-01  0.4018E-01
      0.926  0.0000E+00  0.0000E+00  0.4040E-01  0.4040E-01
      1.061  0.0000E+00  0.0000E+00  0.4040E-01  0.4040E-01
      1.196  0.0000E+00  0.0000E+00  0.4040E-01  0.4040E-01
      1.331  0.0000E+00  0.0000E+00  0.4040E-01  0.4040E-01
      1.466  0.0000E+00  0.0000E+00  0.4040E-01  0.4040E-01
      1.601  0.0000E+00  0.0000E+00  0.4040E-01  0.4040E-01
      1.736  0.0000E+00  0.0000E+00  0.4040E-01  0.4040E-01
      1.871  0.0000E+00  0.0000E+00  0.4040E-01  0.4040E-01
      2.006  0.0000E+00  0.0000E+00  0.4040E-01  0.4040E-01
      2.141  0.0000E+00  0.0000E+00  0.4040E-01  0.4040E-01
      2.276  0.0000E+00  0.0000E+00  0.4040E-01  0.4040E-01
      2.412  0.0000E+00  0.0000E+00  0.4040E-01  0.4040E-01
      2.547  0.0000E+00  0.0000E+00  0.4040E-01  0.4040E-01
      2.682  0.0000E+00  0.0000E+00  0.4040E-01  0.4040E-01
      2.817  0.0000E+00  0.0000E+00  0.4040E-01  0.4040E-01
      2.952  0.0000E+00  0.0000E+00  0.4040E-01  0.4040E-01
      3.087  0.0000E+00  0.0000E+00  0.4040E-01  0.4040E-01
      3.222  0.0000E+00  0.0000E+00  0.4040E-01  0.4040E-01
      3.357  0.0000E+00  0.0000E+00  0.4040E-01  0.4040E-01
      3.492  0.0000E+00  0.0000E+00  0.4040E-01  0.4040E-01
      3.627  0.0000E+00  0.0000E+00  0.4040E-01  0.4040E-01
      3.762  0.0000E+00  0.0000E+00  0.4040E-01  0.4040E-01
      3.897  0.0000E+00  0.0000E+00  0.4040E-01  0.4040E-01
      4.032  0.0000E+00  0.0000E+00  0.4040E-01  0.4040E-01
      4.167  0.0000E+00  0.0000E+00  0.4040E-01  0.4040E-01
      4.302  0.0000E+00  0.0000E+00  0.4040E-01  0.4040E-01
      4.437  0.0000E+00  0.0000E+00  0.4040E-01  0.4040E-01
      4.572  0.0000E+00  0.0000E+00  0.4040E-01  0.4040E-01
      4.707  0.0000E+00  0.0000E+00  0.4040E-01  0.4040E-01
      4.842  0.0000E+00  0.0000E+00  0.4040E-01  0.4040E-01
      4.977  0.0000E+00  0.0000E+00  0.4040E-01  0.4040E-01
      5.112  0.0000E+00  0.0000E+00  0.4040E-01  0.4040E-01
      5.247  0.0000E+00  0.0000E+00  0.4040E-01  0.4040E-01
      5.382  0.0000E+00  0.0000E+00  0.4040E-01  0.4040E-01
      5.517  0.0000E+00  0.0000E+00  0.4040E-01  0.4040E-01
      5.652  0.0000E+00  0.0000E+00  0.4040E-01  0.4040E-01
      5.787  0.0000E+00  0.0000E+00  0.4040E-01  0.4040E-01
      5.922  0.0000E+00  0.0000E+00  0.4040E-01  0.4040E-01
      6.057  0.0000E+00  0.0000E+00  0.4040E-01  0.4040E-01
      6.192  0.0000E+00  0.0000E+00  0.4040E-01  0.4040E-01
      6.327  0.0000E+00  0.0000E+00  0.4040E-01  0.4040E-01
      6.462  0.0000E+00  0.0000E+00  0.4040E-01  0.4040E-01
      6.597  0.1250E-02  0.1250E-02  0.4066E-01  0.4066E-01
      6.732  0.1606E-02  0.1606E-02  0.4085E-01  0.4085E-01
      6.867  0.1994E-02  0.1994E-02  0.4109E-01  0.4109E-01
      7.002  0.2416E-02  0.2416E-02  0.4139E-01  0.4139E-01
      7.137  0.2872E-02  0.2872E-02  0.4175E-01  0.4175E-01
      7.272  0.3357E-02  0.3357E-02  0.4241E-01  0.4241E-01
      7.407  0.3555E-02  0.3555E-02  0.4288E-01  0.4288E-01
      7.542  0.3735E-02  0.3735E-02  0.4337E-01  0.4337E-01
      7.677  0.3898E-02  0.3898E-02  0.4389E-01  0.4389E-01
      7.812  0.4044E-02  0.4044E-02  0.4442E-01  0.4442E-01
      7.947  0.5377E-02  0.5377E-02  0.4534E-01  0.4534E-01
      8.082  0.5387E-02  0.5387E-02  0.4607E-01  0.4607E-01
      8.217  0.5809E-02  0.5809E-02  0.4682E-01  0.4682E-01
      8.352  0.6297E-02  0.6297E-02  0.4764E-01  0.4764E-01
      8.487  0.5343E-02  0.5343E-02  0.4844E-01  0.4844E-01
      8.622  0.3864E-02  0.3864E-02  0.4906E-01  0.4906E-01
      8.757  0.2716E-02  0.2716E-02  0.4949E-01  0.4949E-01
      8.892  0.2267E-02  0.2267E-02  0.4982E-01  0.4982E-01
      9.027  0.1932E-02  0.1932E-02  0.5011E-01  0.5011E-01
      9.162  0.1424E-02  0.1424E-02  0.5033E-01  0.5033E-01
      9.297  0.0000E+00  0.0000E+00  0.5051E-01  0.5051E-01
      9.432  0.0000E+00  0.0000E+00  0.5051E-01  0.5051E-01
      9.567  0.0000E+00  0.0000E+00  0.5051E-01  0.5051E-01
      9.703  0.0000E+00  0.0000E+00  0.5051E-01  0.5051E-01
      9.838  0.0000E+00  0.0000E+00  0.5051E-01  0.5051E-01
      9.973  0.0000E+00  0.0000E+00  0.5051E-01  0.5051E-01
     10.108  0.0000E+00  0.0000E+00  0.5051E-01  0.5051E-01
     10.243  0.0000E+00  0.0000E+00  0.5051E-01  0.5051E-01
     10.378  0.0000E+00  0.0000E+00  0.5051E-01  0.5051E-01
     10.513  0.0000E+00  0.0000E+00  0.5051E-01  0.5051E-01
     10.648  0.0000E+00  0.0000E+00  0.5051E-01  0.5051E-01
     10.783  0.0000E+00  0.0000E+00  0.5051E-01  0.5051E-01
     10.918  0.0000E+00  0.0000E+00  0.5051E-01  0.5051E-01
     11.053  0.0000E+00  0.0000E+00  0.5051E-01  0.5051E-01
     11.188  0.1854E-02  0.1854E-02  0.5059E-01  0.5059E-01
     11.323  0.4580E-02  0.4580E-02  0.5103E-01  0.5103E-01
     11.458  0.7462E-02  0.7462E-02  0.5186E-01  0.5186E-01
     11.593  0.9133E-02  0.9133E-02  0.5299E-01  0.5299E-01
     11.728  0.8523E-02  0.8523E-02  0.5419E-01  0.5419E-01
     11.863  0.4202E-02  0.4202E-02  0.5531E-01  0.5531E-01
     11.998  0.3686E-02  0.3686E-02  0.5585E-01  0.5585E-01
     12.133  0.3589E-02  0.3589E-02  0.5633E-01  0.5633E-01
     12.268  0.3571E-02  0.3571E-02  0.5682E-01  0.5682E-01
     12.403  0.3531E-02  0.3531E-02  0.5730E-01  0.5730E-01
     12.538  0.3469E-02  0.3469E-02  0.5777E-01  0.5777E-01
     12.673  0.3384E-02  0.3384E-02  0.5823E-01  0.5823E-01
     12.808  0.3277E-02  0.3277E-02  0.5868E-01  0.5868E-01
     12.943  0.2691E-02  0.2691E-02  0.5948E-01  0.5948E-01
     13.078  0.4619E-02  0.4619E-02  0.5994E-01  0.5994E-01
     13.213  0.8803E-02  0.8803E-02  0.6085E-01  0.6085E-01
     13.348  0.8752E-02  0.8752E-02  0.6204E-01  0.6204E-01
     13.483  0.9322E-02  0.9322E-02  0.6326E-01  0.6326E-01
     13.618  0.1036E-01  0.1036E-01  0.6458E-01  0.6458E-01
     13.753  0.1047E-01  0.1047E-01  0.6614E-01  0.6614E-01
     13.888  0.1223E-01  0.1223E-01  0.6763E-01  0.6763E-01
     14.023  0.1278E-01  0.1278E-01  0.6946E-01  0.6946E-01
     14.158  0.1272E-01  0.1272E-01  0.7117E-01  0.7117E-01
     14.293  0.1389E-01  0.1389E-01  0.7306E-01  0.7306E-01
     14.428  0.1331E-01  0.1331E-01  0.7484E-01  0.7484E-01
     14.563  0.6330E-02  0.6330E-02  0.7641E-01  0.7641E-01
     14.698  0.6358E-02  0.6358E-02  0.7727E-01  0.7727E-01
     14.833  0.6364E-02  0.6364E-02  0.7812E-01  0.7812E-01
     14.968  0.5971E-02  0.5971E-02  0.7896E-01  0.7896E-01
     15.103  0.4416E-02  0.4416E-02  0.7990E-01  0.7990E-01
     15.238  0.2945E-02  0.2945E-02  0.8040E-01  0.8040E-01
     15.373  0.0000E+00  0.0000E+00  0.8081E-01  0.8081E-01
     15.508  0.0000E+00  0.0000E+00  0.8081E-01  0.8081E-01
     15.643  0.1863E-02  0.1863E-02  0.8090E-01  0.8090E-01
     15.778  0.3303E-02  0.3303E-02  0.8125E-01  0.8125E-01
     15.913  0.4047E-02  0.4047E-02  0.8179E-01  0.8179E-01
     16.048  0.3133E-02  0.3133E-02  0.8225E-01  0.8225E-01
     16.183  0.3116E-02  0.3116E-02  0.8267E-01  0.8267E-01
     16.318  0.3120E-02  0.3120E-02  0.8309E-01  0.8309E-01
     16.453  0.3143E-02  0.3143E-02  0.8352E-01  0.8352E-01
     16.588  0.3186E-02  0.3186E-02  0.8394E-01  0.8394E-01
     16.723  0.3296E-02  0.3296E-02  0.8449E-01  0.8449E-01
     16.858  0.3502E-02  0.3502E-02  0.8495E-01  0.8495E-01
     16.993  0.3688E-02  0.3688E-02  0.8544E-01  0.8544E-01
     17.129  0.3851E-02  0.3851E-02  0.8595E-01  0.8595E-01
     17.264  0.3994E-02  0.3994E-02  0.8648E-01  0.8648E-01
     17.399  0.4115E-02  0.4115E-02  0.8702E-01  0.8702E-01
     17.534  0.4214E-02  0.4214E-02  0.8759E-01  0.8759E-01
     17.669  0.4293E-02  0.4293E-02  0.8816E-01  0.8816E-01
     17.804  0.4349E-02  0.4349E-02  0.8874E-01  0.8874E-01
     17.939  0.4319E-02  0.4320E-02  0.8958E-01  0.8958E-01
     18.074  0.4960E-02  0.4960E-02  0.9018E-01  0.9018E-01
     18.209  0.2168E-02  0.2168E-02  0.9067E-01  0.9067E-01
     18.344  0.5263E-03  0.5264E-03  0.9085E-01  0.9085E-01
     18.479  0.3023E-03  0.3023E-03  0.9088E-01  0.9088E-01
     18.614  0.5779E-03  0.5779E-03  0.9102E-01  0.9102E-01
     18.749  0.1193E-02  0.1193E-02  0.9114E-01  0.9114E-01
     18.884  0.1858E-02  0.1858E-02  0.9134E-01  0.9134E-01
     19.019  0.2507E-02  0.2507E-02  0.9164E-01  0.9164E-01
     19.154  0.3142E-02  0.3142E-02  0.9202E-01  0.9202E-01
     19.289  0.3699E-02  0.3699E-02  0.9252E-01  0.9252E-01
     19.424  0.4127E-02  0.4127E-02  0.9305E-01  0.9305E-01
     19.559  0.4454E-02  0.4454E-02  0.9363E-01  0.9363E-01
     19.694  0.4885E-02  0.4885E-02  0.9426E-01  0.9426E-01
     19.829  0.5233E-02  0.5233E-02  0.9495E-01  0.9495E-01
     19.964  0.5380E-02  0.5380E-02  0.9566E-01  0.9566E-01
     20.099  0.9123E-02  0.9123E-02  0.9668E-01  0.9668E-01
     20.234  0.3588E-02  0.3588E-02  0.9751E-01  0.9751E-01
     20.369  0.2580E-02  0.2580E-02  0.9791E-01  0.9791E-01
     20.504  0.2423E-02  0.2423E-02  0.9825E-01  0.9825E-01
     20.639  0.2270E-02  0.2270E-02  0.9857E-01  0.9857E-01
     20.774  0.2120E-02  0.2120E-02  0.9886E-01  0.9886E-01
     20.909  0.1975E-02  0.1975E-02  0.9914E-01  0.9914E-01
     21.044  0.1833E-02  0.1833E-02  0.9940E-01  0.9939E-01
     21.179  0.1695E-02  0.1695E-02  0.9963E-01  0.9963E-01
     21.314  0.1561E-02  0.1561E-02  0.9985E-01  0.9985E-01
     21.449  0.1431E-02  0.1431E-02  0.1001E+00  0.1001E+00
     21.584  0.1304E-02  0.1304E-02  0.1002E+00  0.1002E+00
     21.719  0.1197E-02  0.1197E-02  0.1005E+00  0.1005E+00
     21.854  0.1013E-02  0.1013E-02  0.1007E+00  0.1007E+00
     21.989  0.8394E-03  0.8394E-03  0.1008E+00  0.1008E+00
     22.124  0.6774E-03  0.6774E-03  0.1009E+00  0.1009E+00
     22.259  0.5267E-03  0.5268E-03  0.1010E+00  0.1010E+00
     22.394  0.0000E+00  0.0000E+00  0.1010E+00  0.1010E+00
     22.529  0.0000E+00  0.0000E+00  0.1010E+00  0.1010E+00
     22.664  0.0000E+00  0.0000E+00  0.1010E+00  0.1010E+00
     22.799  0.0000E+00  0.0000E+00  0.1010E+00  0.1010E+00
     22.934  0.0000E+00  0.0000E+00  0.1010E+00  0.1010E+00
     23.069  0.0000E+00  0.0000E+00  0.1010E+00  0.1010E+00
     23.204  0.0000E+00  0.0000E+00  0.1010E+00  0.1010E+00
     23.339  0.0000E+00  0.0000E+00  0.1010E+00  0.1010E+00
     23.474  0.0000E+00  0.0000E+00  0.1010E+00  0.1010E+00
     23.609  0.0000E+00  0.0000E+00  0.1010E+00  0.1010E+00
     23.744  0.0000E+00  0.0000E+00  0.1010E+00  0.1010E+00
     23.879  0.0000E+00  0.0000E+00  0.1010E+00  0.1010E+00
     24.014  0.0000E+00  0.0000E+00  0.1010E+00  0.1010E+00
     24.149  0.0000E+00  0.0000E+00  0.1010E+00  0.1010E+00
     24.14946722    -16.35604539  301      0.85879747      1.00000000
    -16.356  0.0000E+00  0.0000E+00  0.0000E+00  0.0000E+00  0.0000E+00  0.0000E+00  0.0000E+00  0.0000E+00  0.0000E+00  0.0000E+00  0.0000E+00  0.0000E+00  0.0000E+00  0.0000E+00  0.0000E+00  0.0000E+00  0.0000E+00  0.0000E+00
    -16.221  0.0000E+00  0.0000E+00  0.0000E+00  0.0000E+00  0.0000E+00  0.0000E+00  0.0000E+00  0.0000E+00  0.0000E+00  0.0000E+00  0.0000E+00  0.0000E+00  0.0000E+00  0.0000E+00  0.0000E+00  0.0000E+00  0.0000E+00  0.0000E+00
    -16.086  0.0000E+00  0.0000E+00  0.0000E+00  0.0000E+00  0.0000E+00  0.0000E+00  0.0000E+00  0.0000E+00  0.0000E+00  0.0000E+00  0.0000E+00  0.0000E+00  0.0000E+00  0.0000E+00  0.0000E+00  0.0000E+00  0.0000E+00  0.0000E+00
    -15.951  0.0000E+00  0.0000E+00  0.0000E+00  0.0000E+00  0.0000E+00  0.0000E+00  0.0000E+00  0.0000E+00  0.0000E+00  0.0000E+00  0.0000E+00  0.0000E+00  0.0000E+00  0.0000E+00  0.0000E+00  0.0000E+00  0.0000E+00  0.0000E+00
    -15.816  0.0000E+00  0.0000E+00  0.0000E+00  0.0000E+00  0.0000E+00  0.0000E+00  0.0000E+00  0.0000E+00  0.0000E+00  0.0000E+00  0.0000E+00  0.0000E+00  0.0000E+00  0.0000E+00  0.0000E+00  0.0000E+00  0.0000E+00  0.0000E+00
    -15.681  0.0000E+00  0.0000E+00  0.0000E+00  0.0000E+00  0.0000E+00  0.0000E+00  0.0000E+00  0.0000E+00  0.0000E+00  0.0000E+00  0.0000E+00  0.0000E+00  0.0000E+00  0.0000E+00  0.0000E+00  0.0000E+00  0.0000E+00  0.0000E+00
    -15.546  0.0000E+00  0.0000E+00  0.0000E+00  0.0000E+00  0.0000E+00  0.0000E+00  0.0000E+00  0.0000E+00  0.0000E+00  0.0000E+00  0.0000E+00  0.0000E+00  0.0000E+00  0.0000E+00  0.0000E+00  0.0000E+00  0.0000E+00  0.0000E+00
    -15.411  0.0000E+00  0.0000E+00  0.0000E+00  0.0000E+00  0.0000E+00  0.0000E+00  0.0000E+00  0.0000E+00  0.0000E+00  0.0000E+00  0.0000E+00  0.0000E+00  0.0000E+00  0.0000E+00  0.0000E+00  0.0000E+00  0.0000E+00  0.0000E+00
    -15.276  0.0000E+00  0.0000E+00  0.0000E+00  0.0000E+00  0.0000E+00  0.0000E+00  0.0000E+00  0.0000E+00  0.0000E+00  0.0000E+00  0.0000E+00  0.0000E+00  0.0000E+00  0.0000E+00  0.0000E+00  0.0000E+00  0.0000E+00  0.0000E+00
    -15.141  0.0000E+00  0.0000E+00  0.0000E+00  0.0000E+00  0.0000E+00  0.0000E+00  0.0000E+00  0.0000E+00  0.0000E+00  0.0000E+00  0.0000E+00  0.0000E+00  0.0000E+00  0.0000E+00  0.0000E+00  0.0000E+00  0.0000E+00  0.0000E+00
    -15.006  0.0000E+00  0.0000E+00  0.0000E+00  0.0000E+00  0.0000E+00  0.0000E+00  0.0000E+00  0.0000E+00  0.0000E+00  0.0000E+00  0.0000E+00  0.0000E+00  0.0000E+00  0.0000E+00  0.0000E+00  0.0000E+00  0.0000E+00  0.0000E+00
    -14.871  0.0000E+00  0.0000E+00  0.0000E+00  0.0000E+00  0.0000E+00  0.0000E+00  0.0000E+00  0.0000E+00  0.0000E+00  0.0000E+00  0.0000E+00  0.0000E+00  0.0000E+00  0.0000E+00  0.0000E+00  0.0000E+00  0.0000E+00  0.0000E+00
    -14.736  0.0000E+00  0.0000E+00  0.0000E+00  0.0000E+00  0.0000E+00  0.0000E+00  0.0000E+00  0.0000E+00  0.0000E+00  0.0000E+00  0.0000E+00  0.0000E+00  0.0000E+00  0.0000E+00  0.0000E+00  0.0000E+00  0.0000E+00  0.0000E+00
    -14.601  0.0000E+00  0.0000E+00  0.0000E+00  0.0000E+00  0.0000E+00  0.0000E+00  0.0000E+00  0.0000E+00  0.0000E+00  0.0000E+00  0.0000E+00  0.0000E+00  0.0000E+00  0.0000E+00  0.0000E+00  0.0000E+00  0.0000E+00  0.0000E+00
    -14.466  0.1537E-01  0.1537E-01  0.7058E-03  0.7059E-03  0.2145E-02  0.2145E-02  0.7058E-03  0.7059E-03  0.0000E+00  0.0000E+00  0.0000E+00  0.0000E+00  0.0000E+00  0.0000E+00  0.0000E+00  0.0000E+00  0.0000E+00  0.0000E+00
    -14.331  0.3151E-01  0.3151E-01  0.1456E-01  0.1456E-01  0.1325E-01  0.1325E-01  0.7119E-02  0.7120E-02  0.0000E+00  0.0000E+00  0.0000E+00  0.0000E+00  0.0000E+00  0.0000E+00  0.0000E+00  0.0000E+00  0.0000E+00  0.0000E+00
    -14.196  0.0000E+00  0.0000E+00  0.0000E+00  0.0000E+00  0.0000E+00  0.0000E+00  0.0000E+00  0.0000E+00  0.0000E+00  0.0000E+00  0.0000E+00  0.0000E+00  0.0000E+00  0.0000E+00  0.0000E+00  0.0000E+00  0.0000E+00  0.0000E+00
    -14.061  0.0000E+00  0.0000E+00  0.0000E+00  0.0000E+00  0.0000E+00  0.0000E+00  0.0000E+00  0.0000E+00  0.0000E+00  0.0000E+00  0.0000E+00  0.0000E+00  0.0000E+00  0.0000E+00  0.0000E+00  0.0000E+00  0.0000E+00  0.0000E+00
    -13.926  0.0000E+00  0.0000E+00  0.0000E+00  0.0000E+00  0.0000E+00  0.0000E+00  0.0000E+00  0.0000E+00  0.0000E+00  0.0000E+00  0.0000E+00  0.0000E+00  0.0000E+00  0.0000E+00  0.0000E+00  0.0000E+00  0.0000E+00  0.0000E+00
    -13.791  0.0000E+00  0.0000E+00  0.0000E+00  0.0000E+00  0.0000E+00  0.0000E+00  0.0000E+00  0.0000E+00  0.0000E+00  0.0000E+00  0.0000E+00  0.0000E+00  0.0000E+00  0.0000E+00  0.0000E+00  0.0000E+00  0.0000E+00  0.0000E+00
    -13.656  0.0000E+00  0.0000E+00  0.0000E+00  0.0000E+00  0.0000E+00  0.0000E+00  0.0000E+00  0.0000E+00  0.0000E+00  0.0000E+00  0.0000E+00  0.0000E+00  0.0000E+00  0.0000E+00  0.0000E+00  0.0000E+00  0.0000E+00  0.0000E+00
    -13.521  0.0000E+00  0.0000E+00  0.0000E+00  0.0000E+00  0.0000E+00  0.0000E+00  0.0000E+00  0.0000E+00  0.0000E+00  0.0000E+00  0.0000E+00  0.0000E+00  0.0000E+00  0.0000E+00  0.0000E+00  0.0000E+00  0.0000E+00  0.0000E+00
    -13.386  0.0000E+00  0.0000E+00  0.0000E+00  0.0000E+00  0.0000E+00  0.0000E+00  0.0000E+00  0.0000E+00  0.0000E+00  0.0000E+00  0.0000E+00  0.0000E+00  0.0000E+00  0.0000E+00  0.0000E+00  0.0000E+00  0.0000E+00  0.0000E+00
    -13.251  0.0000E+00  0.0000E+00  0.0000E+00  0.0000E+00  0.0000E+00  0.0000E+00  0.0000E+00  0.0000E+00  0.0000E+00  0.0000E+00  0.0000E+00  0.0000E+00  0.0000E+00  0.0000E+00  0.0000E+00  0.0000E+00  0.0000E+00  0.0000E+00
    -13.116  0.0000E+00  0.0000E+00  0.0000E+00  0.0000E+00  0.0000E+00  0.0000E+00  0.0000E+00  0.0000E+00  0.0000E+00  0.0000E+00  0.0000E+00  0.0000E+00  0.0000E+00  0.0000E+00  0.0000E+00  0.0000E+00  0.0000E+00  0.0000E+00
    -12.981  0.0000E+00  0.0000E+00  0.0000E+00  0.0000E+00  0.0000E+00  0.0000E+00  0.0000E+00  0.0000E+00  0.0000E+00  0.0000E+00  0.0000E+00  0.0000E+00  0.0000E+00  0.0000E+00  0.0000E+00  0.0000E+00  0.0000E+00  0.0000E+00
    -12.846  0.0000E+00  0.0000E+00  0.0000E+00  0.0000E+00  0.0000E+00  0.0000E+00  0.0000E+00  0.0000E+00  0.0000E+00  0.0000E+00  0.0000E+00  0.0000E+00  0.0000E+00  0.0000E+00  0.0000E+00  0.0000E+00  0.0000E+00  0.0000E+00
    -12.711  0.0000E+00  0.0000E+00  0.0000E+00  0.0000E+00  0.0000E+00  0.0000E+00  0.0000E+00  0.0000E+00  0.0000E+00  0.0000E+00  0.0000E+00  0.0000E+00  0.0000E+00  0.0000E+00  0.0000E+00  0.0000E+00  0.0000E+00  0.0000E+00
    -12.576  0.0000E+00  0.0000E+00  0.0000E+00  0.0000E+00  0.0000E+00  0.0000E+00  0.0000E+00  0.0000E+00  0.0000E+00  0.0000E+00  0.0000E+00  0.0000E+00  0.0000E+00  0.0000E+00  0.0000E+00  0.0000E+00  0.0000E+00  0.0000E+00
    -12.441  0.0000E+00  0.0000E+00  0.0000E+00  0.0000E+00  0.0000E+00  0.0000E+00  0.0000E+00  0.0000E+00  0.0000E+00  0.0000E+00  0.0000E+00  0.0000E+00  0.0000E+00  0.0000E+00  0.0000E+00  0.0000E+00  0.0000E+00  0.0000E+00
    -12.305  0.0000E+00  0.0000E+00  0.0000E+00  0.0000E+00  0.0000E+00  0.0000E+00  0.0000E+00  0.0000E+00  0.0000E+00  0.0000E+00  0.0000E+00  0.0000E+00  0.0000E+00  0.0000E+00  0.0000E+00  0.0000E+00  0.0000E+00  0.0000E+00
    -12.170  0.0000E+00  0.0000E+00  0.0000E+00  0.0000E+00  0.0000E+00  0.0000E+00  0.0000E+00  0.0000E+00  0.0000E+00  0.0000E+00  0.0000E+00  0.0000E+00  0.0000E+00  0.0000E+00  0.0000E+00  0.0000E+00  0.0000E+00  0.0000E+00
    -12.035  0.0000E+00  0.0000E+00  0.0000E+00  0.0000E+00  0.0000E+00  0.0000E+00  0.0000E+00  0.0000E+00  0.0000E+00  0.0000E+00  0.0000E+00  0.0000E+00  0.0000E+00  0.0000E+00  0.0000E+00  0.0000E+00  0.0000E+00  0.0000E+00
    -11.900  0.0000E+00  0.0000E+00  0.0000E+00  0.0000E+00  0.0000E+00  0.0000E+00  0.0000E+00  0.0000E+00  0.0000E+00  0.0000E+00  0.0000E+00  0.0000E+00  0.0000E+00  0.0000E+00  0.0000E+00  0.0000E+00  0.0000E+00  0.0000E+00
    -11.765  0.0000E+00  0.0000E+00  0.0000E+00  0.0000E+00  0.0000E+00  0.0000E+00  0.0000E+00  0.0000E+00  0.0000E+00  0.0000E+00  0.0000E+00  0.0000E+00  0.0000E+00  0.0000E+00  0.0000E+00  0.0000E+00  0.0000E+00  0.0000E+00
    -11.630  0.0000E+00  0.0000E+00  0.0000E+00  0.0000E+00  0.0000E+00  0.0000E+00  0.0000E+00  0.0000E+00  0.0000E+00  0.0000E+00  0.0000E+00  0.0000E+00  0.0000E+00  0.0000E+00  0.0000E+00  0.0000E+00  0.0000E+00  0.0000E+00
    -11.495  0.0000E+00  0.0000E+00  0.0000E+00  0.0000E+00  0.0000E+00  0.0000E+00  0.0000E+00  0.0000E+00  0.0000E+00  0.0000E+00  0.0000E+00  0.0000E+00  0.0000E+00  0.0000E+00  0.0000E+00  0.0000E+00  0.0000E+00  0.0000E+00
    -11.360  0.0000E+00  0.0000E+00  0.0000E+00  0.0000E+00  0.0000E+00  0.0000E+00  0.0000E+00  0.0000E+00  0.0000E+00  0.0000E+00  0.0000E+00  0.0000E+00  0.0000E+00  0.0000E+00  0.0000E+00  0.0000E+00  0.0000E+00  0.0000E+00
    -11.225  0.0000E+00  0.0000E+00  0.0000E+00  0.0000E+00  0.0000E+00  0.0000E+00  0.0000E+00  0.0000E+00  0.0000E+00  0.0000E+00  0.0000E+00  0.0000E+00  0.0000E+00  0.0000E+00  0.0000E+00  0.0000E+00  0.0000E+00  0.0000E+00
    -11.090  0.0000E+00  0.0000E+00  0.0000E+00  0.0000E+00  0.0000E+00  0.0000E+00  0.0000E+00  0.0000E+00  0.0000E+00  0.0000E+00  0.0000E+00  0.0000E+00  0.0000E+00  0.0000E+00  0.0000E+00  0.0000E+00  0.0000E+00  0.0000E+00
    -10.955  0.0000E+00  0.0000E+00  0.0000E+00  0.0000E+00  0.0000E+00  0.0000E+00  0.0000E+00  0.0000E+00  0.0000E+00  0.0000E+00  0.0000E+00  0.0000E+00  0.0000E+00  0.0000E+00  0.0000E+00  0.0000E+00  0.0000E+00  0.0000E+00
    -10.820  0.0000E+00  0.0000E+00  0.0000E+00  0.0000E+00  0.0000E+00  0.0000E+00  0.0000E+00  0.0000E+00  0.0000E+00  0.0000E+00  0.0000E+00  0.0000E+00  0.0000E+00  0.0000E+00  0.0000E+00  0.0000E+00  0.0000E+00  0.0000E+00
    -10.685  0.0000E+00  0.0000E+00  0.0000E+00  0.0000E+00  0.0000E+00  0.0000E+00  0.0000E+00  0.0000E+00  0.0000E+00  0.0000E+00  0.0000E+00  0.0000E+00  0.0000E+00  0.0000E+00  0.0000E+00  0.0000E+00  0.0000E+00  0.0000E+00
    -10.550  0.0000E+00  0.0000E+00  0.0000E+00  0.0000E+00  0.0000E+00  0.0000E+00  0.0000E+00  0.0000E+00  0.0000E+00  0.0000E+00  0.0000E+00  0.0000E+00  0.0000E+00  0.0000E+00  0.0000E+00  0.0000E+00  0.0000E+00  0.0000E+00
    -10.415  0.0000E+00  0.0000E+00  0.0000E+00  0.0000E+00  0.0000E+00  0.0000E+00  0.0000E+00  0.0000E+00  0.0000E+00  0.0000E+00  0.0000E+00  0.0000E+00  0.0000E+00  0.0000E+00  0.0000E+00  0.0000E+00  0.0000E+00  0.0000E+00
    -10.280  0.0000E+00  0.0000E+00  0.0000E+00  0.0000E+00  0.0000E+00  0.0000E+00  0.0000E+00  0.0000E+00  0.0000E+00  0.0000E+00  0.0000E+00  0.0000E+00  0.0000E+00  0.0000E+00  0.0000E+00  0.0000E+00  0.0000E+00  0.0000E+00
    -10.145  0.0000E+00  0.0000E+00  0.0000E+00  0.0000E+00  0.0000E+00  0.0000E+00  0.0000E+00  0.0000E+00  0.0000E+00  0.0000E+00  0.0000E+00  0.0000E+00  0.0000E+00  0.0000E+00  0.0000E+00  0.0000E+00  0.0000E+00  0.0000E+00
    -10.010  0.0000E+00  0.0000E+00  0.0000E+00  0.0000E+00  0.0000E+00  0.0000E+00  0.0000E+00  0.0000E+00  0.0000E+00  0.0000E+00  0.0000E+00  0.0000E+00  0.0000E+00  0.0000E+00  0.0000E+00  0.0000E+00  0.0000E+00  0.0000E+00
     -9.875  0.0000E+00  0.0000E+00  0.0000E+00  0.0000E+00  0.0000E+00  0.0000E+00  0.0000E+00  0.0000E+00  0.0000E+00  0.0000E+00  0.0000E+00  0.0000E+00  0.0000E+00  0.0000E+00  0.0000E+00  0.0000E+00  0.0000E+00  0.0000E+00
     -9.740  0.0000E+00  0.0000E+00  0.0000E+00  0.0000E+00  0.0000E+00  0.0000E+00  0.0000E+00  0.0000E+00  0.0000E+00  0.0000E+00  0.0000E+00  0.0000E+00  0.0000E+00  0.0000E+00  0.0000E+00  0.0000E+00  0.0000E+00  0.0000E+00
     -9.605  0.0000E+00  0.0000E+00  0.0000E+00  0.0000E+00  0.0000E+00  0.0000E+00  0.0000E+00  0.0000E+00  0.0000E+00  0.0000E+00  0.0000E+00  0.0000E+00  0.0000E+00  0.0000E+00  0.0000E+00  0.0000E+00  0.0000E+00  0.0000E+00