Automatically generated mesh
      10
Reciprocal lattice
    0.12500000000000    0.12500000000000    0.12500000000000            96
    0.37500000000000    0.12500000000000    0.12500000000000           288
   -0.37500000000000    0.12500000000000    0.12500000000000           288
   -0.12500000000000    0.12500000000000    0.12500000000000           288
    0.37500000000000    0.37500000000000    0.12500000000000           288
   -0.37500000000000    0.37500000000000    0.12500000000000           576
   -0.12500000000000    0.37500000000000    0.12500000000000           576
   -0.37500000000000   -0.37500000000000    0.12500000000000           288
    0.37500000000000    0.37500000000000    0.37500000000000            96
   -0.37500000000000    0.37500000000000    0.37500000000000           288
Tetrahedra
       102    0.00032552083333
        24         1         2         4         9
        24         2         3         4         7
        24         3         4         5         7
        24         2         3         4         9
        24         5         6         7        10
        24         5         6         8        10
        24         3         5         7        10
        24         6         6         8        10
        24         6         8         8        10
        24         6         8        10        10
        24         3         6         7         8
        24         3         5         7         8
        24         3         6         8        10
        24         2         5         7         9
        24         2         4         5         9
        24         3         5         7         9
        36         2         2         4         4
        48         1         2         4         4
        24         2         2         4         9
        24         1         1         2         4
        24         1         2         2         4
        24         2         3         7        10
        24         2         3         3         7
        24         2         3         3         9
        72         6         7         7        10
        36         6         6         7         7
        48         3         7         7        10
        12         3         3         7         7
        48         6         6         6         7
        72         6         6         7        10
        72         6         7        10        10
        24         3         6         6        10
        72         3         6         7        10
        24         3         3         6         7
        24         3         6         6         7
        24         3         3         6        10
        48         2         3         7         7
        48         2         3         7         9
        24         3         3         7        10
        24         3         3         3         7
        24         3         3         7         9
        48         2         5         7         7
        24         2         4         5         7
        48         2         2         4         7
        24         2         2         7         9
        24         4         5         5         7
        24         4         4         5         7
        24         2         4         4         7
        24         4         5         7         7
        24         2         4         7         7
        24         5         6         8         8
        24         5         6         6         8
        24         5         6         6         7
        24         5         5         6         8
        24         5         5         6         7
        48         5         6         7         7
        48         6         6         7         8
        24         5         6         7         8
        24         3         6         7         7
        48         6         6        10        10
        24         3         7        10        10
        12         3         3        10        10
        24         5         8         8         8
        24         5         5         8         8
        24         5         5         5         8
        24         6         7         8         8
        24         6         7         7         8
        24         5         7         8         8
        24         5         5         7         8
        24         5         7         7         8
        72         6         6         6        10
        72         6         6         6         8
        60         6         6         8         8
        48         6         8         8         8
        24         2         7         9        10
        24         3         7         9        10
        24         3         3         9        10
        24         2         4         4         5
        24         2         4         5         5
        24         2         5         5         7
        24         2         2         4         5
        24         2         2         5         7
        36         1         1         4         4
        48         1         4         4         4
        24         2         4         4         4
        24         1         1         1         4
        12         3         3         9         9
        24         2         7         7        10
        24         2         7        10        10
        24         2         2         7        10
        12         3         3         3         3
        24         3         3         3         9
        24         4         5         5         5
        24         4         4         5         5
        24         4         4         4         5
        24         7         7         7        10
        12         7         7        10        10
        24         2         7         7         7
        12         2         2         7         7
        72         6         6         6         6
        12         1         1         1         1
        36         8         8         8         8
