       N       E                     dE             d eps       ncg     rms          rms(c)
DAV:   1     0.113213082551E+02    0.11321E+02   -0.35779E+03   400   0.656E+02
DAV:   2    -0.138473382493E+02   -0.25169E+02   -0.24565E+02   478   0.115E+02
DAV:   3    -0.145614072459E+02   -0.71407E+00   -0.71334E+00   456   0.191E+01
DAV:   4    -0.145625767772E+02   -0.11695E-02   -0.11695E-02   430   0.959E-01
DAV:   5    -0.145625798969E+02   -0.31197E-05   -0.31197E-05   420   0.495E-02    0.113E+01
RMM:   6    -0.141590160068E+02    0.40356E+00   -0.35879E+00   400   0.134E+01    0.447E+00
RMM:   7    -0.143105155289E+02   -0.15150E+00   -0.10011E-01   400   0.252E+00    0.171E+00
RMM:   8    -0.143024720973E+02    0.80434E-02   -0.29283E-02   400   0.169E+00    0.952E-01
RMM:   9    -0.143115864818E+02   -0.91144E-02   -0.10956E-02   400   0.108E+00    0.166E-01
RMM:  10    -0.143116626359E+02   -0.76154E-04   -0.69146E-04   289   0.180E-01
   1 F= -.14311663E+02 E0= -.14311663E+02  d E =-.143117E+02  mag=     0.0023
       N       E                     dE             d eps       ncg     rms          rms(c)
DAV:   1    -0.143210095865E+02   -0.94231E-02   -0.15552E-01   420   0.320E+00    0.664E-01
RMM:   2    -0.143136979698E+02    0.73116E-02   -0.20874E-02   400   0.106E+00    0.850E-02
RMM:   3    -0.143133890695E+02    0.30890E-03   -0.25465E-04   204   0.130E-01    0.343E-02
RMM:   4    -0.143133666134E+02    0.22456E-04   -0.11483E-04   202   0.979E-02    0.297E-02
RMM:   5    -0.143133469290E+02    0.19684E-04   -0.32624E-06    27   0.227E-02    0.144E-02
RMM:   6    -0.143133472739E+02   -0.34492E-06   -0.46623E-05   158   0.491E-02
   2 F= -.14313347E+02 E0= -.14313347E+02  d E =-.168464E-02  mag=    -0.0000
       N       E                     dE             d eps       ncg     rms          rms(c)
DAV:   1    -0.143134253859E+02   -0.78457E-04   -0.11125E-03   270   0.257E-01    0.519E-02
RMM:   2    -0.143133796080E+02    0.45778E-04   -0.13072E-04   199   0.863E-02    0.602E-03
RMM:   3    -0.143133780535E+02    0.15545E-05    0.00000E+00     5   0.147E-02    0.333E-03
RMM:   4    -0.143133778770E+02    0.17652E-06   -0.44125E-07     7   0.174E-02    0.319E-03
RMM:   5    -0.143133776387E+02    0.23831E-06   -0.21467E-08     3   0.145E-02    0.145E-03
RMM:   6    -0.143133775796E+02    0.59076E-07   -0.20971E-08     3   0.133E-02
   3 F= -.14313378E+02 E0= -.14313378E+02  d E =-.171494E-02  mag=     0.0000
