 vasp.5.3.2 13Sep12 (build Oct 30 2012 11:58:51) complex                        
  
 executed on             LinuxIFC date 2013.02.27  16:13:01
 running on    1 total cores
 distrk:  each k-point on    1 cores,    1 groups
 distr:  one band on NCORES_PER_BAND=   1 cores,    1 groups


--------------------------------------------------------------------------------------------------------


 INCAR:
 POTCAR:    PAW_PBE Li 17Jan2003                  
 POTCAR:   PAW_PBE O 08Apr2002                    
 POTCAR:    PAW_PBE Li 17Jan2003                  
   VRHFIN =Li: s1p0                                                             
   LEXCH  = PE                                                                  
   EATOM  =     5.3001 eV,     .3895 Ry                                         
                                                                                
   TITEL  = PAW_PBE Li 17Jan2003                                                
   LULTRA =        F    use ultrasoft PP ?                                      
   IUNSCR =        1    unscreen: 0-lin 1-nonlin 2-no                           
   RPACOR =    1.500    partial core radius                                     
   POMASS =    7.010; ZVAL   =    1.000    mass and valenz                      
   RCORE  =    2.050    outmost cutoff radius                                   
   RWIGS  =    2.600; RWIGS  =    1.376    wigner-seitz radius (au A)           
   ENMAX  =  140.000; ENMIN  =  100.000 eV                                      
   ICORE  =        2    local potential                                         
   LCOR   =        T    correct aug charges                                     
   LPAW   =        T    paw PP                                                  
   EAUG   =  331.638                                                            
   DEXC   =    -.010                                                            
   RMAX   =    4.263    core radius for proj-oper                               
   RAUG   =    1.300    factor for augmentation sphere                          
   RDEP   =    2.094    radius for radial grids                                 
   QCUT   =   -2.932; QGAM   =    5.865    optimization parameters              
                                                                                
   Description                                                                  
     l     E      TYP  RCUT    TYP  RCUT                                        
     0   .000     23  2.050                                                     
     0  2.000     23  2.050                                                     
     1   .000     23  2.050                                                     
     2   .000     23  2.050                                                     
  local pseudopotential read in
  partial core-charges read in
  atomic valenz-charges read in
  non local Contribution for L=           0  read in
    real space projection operators read in
  non local Contribution for L=           0  read in
    real space projection operators read in
  non local Contribution for L=           1  read in
    real space projection operators read in
    PAW grid and wavefunctions read in
 
   number of l-projection  operators is LMAX  =           3
   number of lm-projection operators is LMMAX =           5
 
 POTCAR:   PAW_PBE O 08Apr2002                    
   VRHFIN =O: s2p4                                                              
   LEXCH  = PE                                                                  
   EATOM  =   432.3788 eV,   31.7789 Ry                                         
                                                                                
   TITEL  = PAW_PBE O 08Apr2002                                                 
   LULTRA =        F    use ultrasoft PP ?                                      
   IUNSCR =        0    unscreen: 0-lin 1-nonlin 2-no                           
   RPACOR =     .000    partial core radius                                     
   POMASS =   16.000; ZVAL   =    6.000    mass and valenz                      
   RCORE  =    1.520    outmost cutoff radius                                   
   RWIGS  =    1.550; RWIGS  =     .820    wigner-seitz radius (au A)           
   ENMAX  =  400.000; ENMIN  =  300.000 eV                                      
   ICORE  =        2    local potential                                         
   LCOR   =        T    correct aug charges                                     
   LPAW   =        T    paw PP                                                  
   EAUG   =  605.392                                                            
   DEXC   =     .000                                                            
   RMAX   =    2.264    core radius for proj-oper                               
   RAUG   =    1.300    factor for augmentation sphere                          
   RDEP   =    1.550    radius for radial grids                                 
   QCUT   =   -5.520; QGAM   =   11.041    optimization parameters              
                                                                                
   Description                                                                  
     l     E      TYP  RCUT    TYP  RCUT                                        
     0   .000     23  1.200                                                     
     0  -.700     23  1.200                                                     
     1   .000     23  1.520                                                     
     1   .600     23  1.520                                                     
     2   .000      7  1.500                                                     
  local pseudopotential read in
  atomic valenz-charges read in
  non local Contribution for L=           0  read in
    real space projection operators read in
  non local Contribution for L=           0  read in
    real space projection operators read in
  non local Contribution for L=           1  read in
    real space projection operators read in
  non local Contribution for L=           1  read in
    real space projection operators read in
    PAW grid and wavefunctions read in
 
   number of l-projection  operators is LMAX  =           4
   number of lm-projection operators is LMMAX =           8
 

 ----------------------------------------------------------------------------- 
|                                                                             |
|  ADVICE TO THIS USER RUNNING 'VASP/VAMP'   (HEAR YOUR MASTER'S VOICE ...):  |
|                                                                             |
|      You have a (more or less) 'small supercell' and for smaller cells      |
|      it is recommended  to use the reciprocal-space projection scheme!      |
|      The real space optimization is not  efficient for small cells and it   |
|      is also less accurate ...                                              |
|      Therefore set LREAL=.FALSE. in the  INCAR file                         |
|                                                                             |
 ----------------------------------------------------------------------------- 

 Optimization of the real space projectors (new method)

 maximal supplied QI-value         = 18.33
 optimisation between [QCUT,QGAM] = [ 11.55, 23.28] = [ 37.34,151.76] Ry 
 Optimized for a Real-space Cutoff    1.14 Angstroem

   l    n(q)    QCUT    max X(q) W(low)/X(q) W(high)/X(q)  e(spline) 
   0      8    11.548    30.666    0.12E-04    0.21E-04    0.93E-08
   0      8    11.548    39.284    0.15E-03    0.55E-04    0.54E-07
   1      7    11.548     4.214    0.21E-03    0.27E-03    0.42E-07
 Optimization of the real space projectors (new method)

 maximal supplied QI-value         = 24.76
 optimisation between [QCUT,QGAM] = [ 11.64, 23.27] = [ 37.91,151.63] Ry 
 Optimized for a Real-space Cutoff    1.08 Angstroem

   l    n(q)    QCUT    max X(q) W(low)/X(q) W(high)/X(q)  e(spline) 
   0      7    11.635     4.192    0.54E-04    0.80E-04    0.26E-07
   0      7    11.635     8.473    0.70E-04    0.40E-03    0.21E-06
   1      7    11.635     2.474    0.39E-04    0.14E-03    0.23E-07
   1      7    11.635     3.912    0.25E-03    0.37E-03    0.22E-06
  PAW_PBE Li 17Jan2003                  :
 energy of atom  1       EATOM=   -5.3001
 kinetic energy error for atom=    0.0000 (will be added to EATOM!!)
 PAW_PBE O 08Apr2002                    :
 energy of atom  2       EATOM= -432.3788
 kinetic energy error for atom=    0.0208 (will be added to EATOM!!)
 
 
 POSCAR: Li2 O1                                  
  positions in direct lattice
  No initial velocities read in
 exchange correlation table for  LEXCH =        8
   RHO(1)=    0.500       N(1)  =     2000
   RHO(2)=  100.500       N(2)  =     4000
 


--------------------------------------------------------------------------------------------------------


 ion  position               nearest neighbor table
   1  0.750  0.750  0.750-   3 2.00   3 2.00   3 2.00   3 2.00   2 2.31   2 2.31   2 2.31   2 2.31
                             2 2.31   2 2.31
   2  0.250  0.250  0.250-   3 2.00   3 2.00   3 2.00   3 2.00   1 2.31   1 2.31   1 2.31   1 2.31
                             1 2.31   1 2.31
   3  0.000  0.000  0.000-   1 2.00   2 2.00   1 2.00   1 2.00   1 2.00   2 2.00   2 2.00   2 2.00

 
  LATTYP: Found a face centered cubic cell.
 ALAT       =     4.6100000000
  
  Lattice vectors:
  
 A1 = (   2.3050000000,   2.3050000000,   0.0000000000)
 A2 = (   0.0000000000,   2.3050000000,   2.3050000000)
 A3 = (   2.3050000000,   0.0000000000,   2.3050000000)


Analysis of symmetry for initial positions (statically):
=====================================================================
 Subroutine PRICEL returns:
 Original cell was already a primitive cell.
 

 Routine SETGRP: Setting up the symmetry group for a 
 face centered cubic supercell.


 Subroutine GETGRP returns: Found 48 space group operations
 (whereof 48 operations were pure point group operations)
 out of a pool of 48 trial point group operations.


The static configuration has the point symmetry O_h .


Analysis of symmetry for dynamics (positions and initial velocities):
=====================================================================
 Subroutine PRICEL returns:
 Original cell was already a primitive cell.
 

 Routine SETGRP: Setting up the symmetry group for a 
 face centered cubic supercell.


 Subroutine GETGRP returns: Found 48 space group operations
 (whereof 48 operations were pure point group operations)
 out of a pool of 48 trial point group operations.


The dynamic configuration has the point symmetry O_h .


Analysis of magnetic symmetry:
=====================================================================

 Subroutine MAGSYM returns: Found 48 space group operations
 (whereof 48 operations were pure point group operations)
 out of a pool of 48 trial space group operations
 (whereof 48 operations were pure point group operations)
 and found also     1 'primitive' translations


The magnetic configuration has the point symmetry O_h .
 
 
 KPOINTS: Automatic kpoint scheme                 

Automatic generation of k-mesh.
Space group operators:
 irot       det(A)        alpha          n_x          n_y          n_z        tau_x        tau_y        tau_z
    1     1.000000     0.000000     1.000000     0.000000     0.000000     0.000000     0.000000     0.000000
    2    -1.000000     0.000000     1.000000     0.000000     0.000000     0.000000     0.000000     0.000000
    3     1.000000   120.000000    -0.577350    -0.577350    -0.577350     0.000000     0.000000     0.000000
    4    -1.000000   120.000000    -0.577350    -0.577350    -0.577350     0.000000     0.000000     0.000000
    5     1.000000   120.000000     0.577350     0.577350     0.577350     0.000000     0.000000     0.000000
    6    -1.000000   120.000000     0.577350     0.577350     0.577350     0.000000     0.000000     0.000000
    7     1.000000    90.000000     0.000000    -1.000000     0.000000     0.000000     0.000000     0.000000
    8    -1.000000    90.000000     0.000000    -1.000000     0.000000     0.000000     0.000000     0.000000
    9     1.000000   180.000000     0.707107     0.707107     0.000000     0.000000     0.000000     0.000000
   10    -1.000000   180.000000     0.707107     0.707107     0.000000     0.000000     0.000000     0.000000
   11     1.000000    90.000000     1.000000     0.000000     0.000000     0.000000     0.000000     0.000000
   12    -1.000000    90.000000     1.000000     0.000000     0.000000     0.000000     0.000000     0.000000
   13     1.000000   180.000000     0.000000     1.000000     0.000000     0.000000     0.000000     0.000000
   14    -1.000000   180.000000     0.000000     1.000000     0.000000     0.000000     0.000000     0.000000
   15     1.000000   120.000000     0.577350     0.577350    -0.577350     0.000000     0.000000     0.000000
   16    -1.000000   120.000000     0.577350     0.577350    -0.577350     0.000000     0.000000     0.000000
   17     1.000000   120.000000     0.577350    -0.577350    -0.577350     0.000000     0.000000     0.000000
   18    -1.000000   120.000000     0.577350    -0.577350    -0.577350     0.000000     0.000000     0.000000
   19     1.000000    90.000000     0.000000     1.000000     0.000000     0.000000     0.000000     0.000000
   20    -1.000000    90.000000     0.000000     1.000000     0.000000     0.000000     0.000000     0.000000
   21     1.000000    90.000000     0.000000     0.000000    -1.000000     0.000000     0.000000     0.000000
   22    -1.000000    90.000000     0.000000     0.000000    -1.000000     0.000000     0.000000     0.000000
   23     1.000000   180.000000     0.000000     0.707107     0.707107     0.000000     0.000000     0.000000
   24    -1.000000   180.000000     0.000000     0.707107     0.707107     0.000000     0.000000     0.000000
   25     1.000000   120.000000    -0.577350     0.577350     0.577350     0.000000     0.000000     0.000000
   26    -1.000000   120.000000    -0.577350     0.577350     0.577350     0.000000     0.000000     0.000000
   27     1.000000   120.000000    -0.577350     0.577350    -0.577350     0.000000     0.000000     0.000000
   28    -1.000000   120.000000    -0.577350     0.577350    -0.577350     0.000000     0.000000     0.000000
   29     1.000000   180.000000     0.000000     0.000000     1.000000     0.000000     0.000000     0.000000
   30    -1.000000   180.000000     0.000000     0.000000     1.000000     0.000000     0.000000     0.000000
   31     1.000000    90.000000    -1.000000     0.000000     0.000000     0.000000     0.000000     0.000000
   32    -1.000000    90.000000    -1.000000     0.000000     0.000000     0.000000     0.000000     0.000000
   33     1.000000   180.000000     0.707107     0.000000     0.707107     0.000000     0.000000     0.000000
   34    -1.000000   180.000000     0.707107     0.000000     0.707107     0.000000     0.000000     0.000000
   35     1.000000    90.000000     0.000000     0.000000     1.000000     0.000000     0.000000     0.000000
   36    -1.000000    90.000000     0.000000     0.000000     1.000000     0.000000     0.000000     0.000000
   37     1.000000   120.000000    -0.577350    -0.577350     0.577350     0.000000     0.000000     0.000000
   38    -1.000000   120.000000    -0.577350    -0.577350     0.577350     0.000000     0.000000     0.000000
   39     1.000000   180.000000     1.000000     0.000000     0.000000     0.000000     0.000000     0.000000
   40    -1.000000   180.000000     1.000000     0.000000     0.000000     0.000000     0.000000     0.000000
   41     1.000000   120.000000     0.577350    -0.577350     0.577350     0.000000     0.000000     0.000000
   42    -1.000000   120.000000     0.577350    -0.577350     0.577350     0.000000     0.000000     0.000000
   43     1.000000   180.000000     0.707107    -0.707107     0.000000     0.000000     0.000000     0.000000
   44    -1.000000   180.000000     0.707107    -0.707107     0.000000     0.000000     0.000000     0.000000
   45     1.000000   180.000000     0.707107     0.000000    -0.707107     0.000000     0.000000     0.000000
   46    -1.000000   180.000000     0.707107     0.000000    -0.707107     0.000000     0.000000     0.000000
   47     1.000000   180.000000     0.000000    -0.707107     0.707107     0.000000     0.000000     0.000000
   48    -1.000000   180.000000     0.000000    -0.707107     0.707107     0.000000     0.000000     0.000000
 
 Subroutine IBZKPT returns following result:
 ===========================================
 
 Found     10 irreducible k-points:
 
 Following reciprocal coordinates:
            Coordinates               Weight
  0.125000  0.125000  0.125000     96.000000
  0.375000  0.125000  0.125000    288.000000
 -0.375000  0.125000  0.125000    288.000000
 -0.125000  0.125000  0.125000    288.000000
  0.375000  0.375000  0.125000    288.000000
 -0.375000  0.375000  0.125000    576.000000
 -0.125000  0.375000  0.125000    576.000000
 -0.375000 -0.375000  0.125000    288.000000
  0.375000  0.375000  0.375000     96.000000
 -0.375000  0.375000  0.375000    288.000000
 
 Following cartesian coordinates:
            Coordinates               Weight
  0.027115  0.027115  0.027115     96.000000
  0.081345  0.081345 -0.027115    288.000000
 -0.081345 -0.081345  0.135575    288.000000
 -0.027115 -0.027115  0.081345    288.000000
  0.027115  0.135575  0.027115    288.000000
 -0.135575 -0.027115  0.189805    576.000000
 -0.081345  0.027115  0.135575    576.000000
  0.027115 -0.189805  0.027115    288.000000
  0.081345  0.081345  0.081345     96.000000
 -0.081345 -0.081345  0.244035    288.000000
 
 TETIRR: Found    102 inequivalent tetrahedra from     3072


--------------------------------------------------------------------------------------------------------




 Dimension of arrays:
   k-points           NKPTS =     10   k-points in BZ     NKDIM =     10   number of bands    NBANDS=     10
   number of dos      NEDOS =    301   number of ions     NIONS =      3
   non local maximal  LDIM  =      4   non local SUM 2l+1 LMDIM =      8
   total plane-waves  NPLWV =  13824
   max r-space proj   IRMAX =   3564   max aug-charges    IRDMAX=  18257
   dimension x,y,z NGX =    24 NGY =   24 NGZ =   24
   dimension x,y,z NGXF=    48 NGYF=   48 NGZF=   48
   support grid    NGXF=    48 NGYF=   48 NGZF=   48
   ions per type =               2   1
 NGX,Y,Z   is equivalent  to a cutoff of  12.24, 12.24, 12.24 a.u.
 NGXF,Y,Z  is equivalent  to a cutoff of  24.48, 24.48, 24.48 a.u.


 I would recommend the setting:
   dimension x,y,z NGX =    24 NGY =   24 NGZ =   24
 SYSTEM =  unknown system                          
 POSCAR =  Li2 O1                                  

 Startparameter for this run:
   NWRITE =      2    write-flag & timer
   PREC   = accura    normal or accurate (medium, high low for compatibility)
   ISTART =      0    job   : 0-new  1-cont  2-samecut
   ICHARG =      1    charge: 1-file 2-atom 10-const
   ISPIN  =      2    spin polarized calculation?
   LNONCOLLINEAR =      F non collinear calculations
   LSORBIT =      F    spin-orbit coupling
   INIWAV =      1    electr: 0-lowe 1-rand  2-diag
   LASPH  =      F    aspherical Exc in radial PAW
   METAGGA=      F    non-selfconsistent MetaGGA calc.

 Electronic Relaxation 1
   ENCUT  =  520.0 eV  38.22 Ry    6.18 a.u.   6.06  6.06  6.06*2*pi/ulx,y,z
   ENINI  =  520.0     initial cutoff
   ENAUG  =  605.4 eV  augmentation charge cutoff
   NELM   =    100;   NELMIN=  6; NELMDL=  0     # of ELM steps 
   EDIFF  = 0.4E-03   stopping-criterion for ELM
   LREAL  =      T    real-space projection
   NLSPLINE    = F    spline interpolate recip. space projectors
   LCOMPAT=      F    compatible to vasp.4.4
   GGA_COMPAT  = T    GGA compatible to vasp.4.4-vasp.4.6
   LMAXPAW     = -100 max onsite density
   LMAXMIX     =    4 max onsite mixed and CHGCAR
   VOSKOWN=      0    Vosko Wilk Nusair interpolation
   ROPT   =   -0.00025  -0.00025
 Ionic relaxation
   EDIFFG = 0.4E-02   stopping-criterion for IOM
   NSW    =     99    number of steps for IOM
   NBLOCK =      1;   KBLOCK =     99    inner block; outer block 
   IBRION =      2    ionic relax: 0-MD 1-quasi-New 2-CG
   NFREE  =      1    steps in history (QN), initial steepest desc. (CG)
   ISIF   =      3    stress and relaxation
   IWAVPR =     11    prediction:  0-non 1-charg 2-wave 3-comb
   ISYM   =      2    0-nonsym 1-usesym 2-fastsym
   LCORR  =      T    Harris-Foulkes like correction to forces

   POTIM  = 0.5000    time-step for ionic-motion
   TEIN   =    0.0    initial temperature
   TEBEG  =    0.0;   TEEND  =   0.0 temperature during run
   SMASS  =  -3.00    Nose mass-parameter (am)
   estimated Nose-frequenzy (Omega)   =  0.10E-29 period in steps =****** mass=  -0.243E-27a.u.
   SCALEE = 1.0000    scale energy and forces
   NPACO  =    256;   APACO  = 16.0  distance and # of slots for P.C.
   PSTRESS=    0.0 pullay stress

  Mass of Ions in am
   POMASS =   7.01 16.00
  Ionic Valenz
   ZVAL   =   1.00  6.00
  Atomic Wigner-Seitz radii
   RWIGS  =  -1.00 -1.00
  virtual crystal weights 
   VCA    =   1.00  1.00
   NELECT =       8.0000    total number of electrons
   NUPDOWN=      -1.0000    fix difference up-down

 DOS related values:
   EMIN   =  10.00;   EMAX   =-10.00  energy-range for DOS
   EFERMI =   0.00
   ISMEAR =    -5;   SIGMA  =   0.05  broadening in eV -4-tet -1-fermi 0-gaus

 Electronic relaxation 2 (details)
   IALGO  =     68    algorithm
   LDIAG  =      T    sub-space diagonalisation (order eigenvalues)
   LSUBROT=      T    optimize rotation matrix (better conditioning)
   TURBO    =      0    0=normal 1=particle mesh
   IRESTART =      0    0=no restart 2=restart with 2 vectors
   NREBOOT  =      0    no. of reboots
   NMIN     =      0    reboot dimension
   EREF     =   0.00    reference energy to select bands
   IMIX   =      4    mixing-type and parameters
     AMIX     =   0.40;   BMIX     =  1.00
     AMIX_MAG =   1.60;   BMIX_MAG =  1.00
     AMIN     =   0.10
     WC   =   100.;   INIMIX=   1;  MIXPRE=   1;  MAXMIX= -45

 Intra band minimization:
   WEIMIN = 0.0010     energy-eigenvalue tresh-hold
   EBREAK =  0.10E-04  absolut break condition
   DEPER  =   0.30     relativ break condition  

   TIME   =   0.40     timestep for ELM

  volume/ion in A,a.u.               =       8.16        55.10
  Fermi-wavevector in a.u.,A,eV,Ry     =   1.127433  2.130539 17.294422  1.271104
  Thomas-Fermi vector in A             =   2.264119
 
 Write flags
   LWAVE  =      F    write WAVECAR
   LCHARG =      T    write CHGCAR
   LVTOT  =      F    write LOCPOT, total local potential
   LVHAR  =      F    write LOCPOT, Hartree potential only
   LELF   =      F    write electronic localiz. function (ELF)
   LORBIT =     11    0 simple, 1 ext, 2 COOP (PROOUT)


 Dipole corrections
   LMONO  =      F    monopole corrections only (constant potential shift)
   LDIPOL =      F    correct potential (dipole corrections)
   IDIPOL =      0    1-x, 2-y, 3-z, 4-all directions 
   EPSILON=  1.0000000 bulk dielectric constant

 Exchange correlation treatment:
   GGA     =    --    GGA type
   LEXCH   =     8    internal setting for exchange type
   VOSKOWN=      0    Vosko Wilk Nusair interpolation
   LHFCALC =     F    Hartree Fock is set to
   LHFONE  =     F    Hartree Fock one center treatment
   AEXX    =    0.0000 exact exchange contribution

 Linear response parameters
   LEPSILON=     F    determine dielectric tensor
   LRPA    =     F    only Hartree local field effects (RPA)
   LNABLA  =     F    use nabla operator in PAW spheres
   LVEL    =     F    velocity operator in full k-point grid
   LINTERFAST=   F  fast interpolation
   KINTER  =     0    interpolate to denser k-point grid
   CSHIFT  =0.1000    complex shift for real part using Kramers Kronig
   OMEGAMAX=  -1.0    maximum frequency
   DEG_THRESHOLD= 0.2000000E-02 threshold for treating states as degnerate
   RTIME   =    0.100 relaxation time in fs

 Orbital magnetization related:
   ORBITALMAG=     F  switch on orbital magnetization
   LCHIMAG   =     F  perturbation theory with respect to B field
   DQ        =  0.001000  dq finite difference perturbation B field



--------------------------------------------------------------------------------------------------------


 conjugate gradient relaxation of ions
 charge density and potential will be updated during run
 spin polarized calculation
 RMM-DIIS sequential band-by-band and
  variant of blocked Davidson during initial phase
 perform sub-space diagonalisation
    before iterative eigenvector-optimisation
 modified Broyden-mixing scheme, WC =      100.0
 initial mixing is a Kerker type mixing with AMIX =  0.4000 and BMIX =      1.0000
 Hartree-type preconditioning will be used
 using additional bands            6
 real space projection scheme for non local part
 use partial core corrections
 calculate Harris-corrections to forces 
   (improved forces if not selfconsistent)
 use gradient corrections 
 use of overlap-Matrix (Vanderbilt PP)
 Fermi weights with tetrahedron method with Bloechl corrections


--------------------------------------------------------------------------------------------------------


  energy-cutoff  :      520.00
  volume of cell :       24.49
      direct lattice vectors                 reciprocal lattice vectors
     2.305000000  2.305000000  0.000000000     0.216919740  0.216919740 -0.216919740
     0.000000000  2.305000000  2.305000000    -0.216919740  0.216919740  0.216919740
     2.305000000  0.000000000  2.305000000     0.216919740 -0.216919740  0.216919740

  length of vectors
     3.259762261  3.259762261  3.259762261     0.375716010  0.375716010  0.375716010


 
 k-points in units of 2pi/SCALE and weight: Automatic kpoint scheme                 
   0.02711497  0.02711497  0.02711497       0.031
   0.08134490  0.08134490 -0.02711497       0.094
  -0.08134490 -0.08134490  0.13557484       0.094
  -0.02711497 -0.02711497  0.08134490       0.094
   0.02711497  0.13557484  0.02711497       0.094
  -0.13557484 -0.02711497  0.18980477       0.188
  -0.08134490  0.02711497  0.13557484       0.188
   0.02711497 -0.18980477  0.02711497       0.094
   0.08134490  0.08134490  0.08134490       0.031
  -0.08134490 -0.08134490  0.24403471       0.094
 
 k-points in reciprocal lattice and weights: Automatic kpoint scheme                 
   0.12500000  0.12500000  0.12500000       0.031
   0.37500000  0.12500000  0.12500000       0.094
  -0.37500000  0.12500000  0.12500000       0.094
  -0.12500000  0.12500000  0.12500000       0.094
   0.37500000  0.37500000  0.12500000       0.094
  -0.37500000  0.37500000  0.12500000       0.188
  -0.12500000  0.37500000  0.12500000       0.188
  -0.37500000 -0.37500000  0.12500000       0.094
   0.37500000  0.37500000  0.37500000       0.031
  -0.37500000  0.37500000  0.37500000       0.094
 
 position of ions in fractional coordinates (direct lattice) 
   0.75000000  0.75000000  0.75000000
   0.25000000  0.25000000  0.25000000
   0.00000000  0.00000000  0.00000000
 
 position of ions in cartesian coordinates  (Angst):
   3.45750000  3.45750000  3.45750000
   1.15250000  1.15250000  1.15250000
   0.00000000  0.00000000  0.00000000
 


--------------------------------------------------------------------------------------------------------


 k-point  1 :   0.1250 0.1250 0.1250  plane waves:     649
 k-point  2 :   0.3750 0.1250 0.1250  plane waves:     645
 k-point  3 :  -0.3750 0.1250 0.1250  plane waves:     659
 k-point  4 :  -0.1250 0.1250 0.1250  plane waves:     656
 k-point  5 :   0.3750 0.3750 0.1250  plane waves:     658
 k-point  6 :  -0.3750 0.3750 0.1250  plane waves:     665
 k-point  7 :  -0.1250 0.3750 0.1250  plane waves:     659
 k-point  8 :  -0.3750-0.3750 0.1250  plane waves:     662
 k-point  9 :   0.3750 0.3750 0.3750  plane waves:     658
 k-point 10 :  -0.3750 0.3750 0.3750  plane waves:     667

 maximum and minimum number of plane-waves per node :       667      645

 maximum number of plane-waves:       667
 maximum index in each direction: 
   IXMAX=    6   IYMAX=    6   IZMAX=    5
   IXMIN=   -6   IYMIN=   -6   IZMIN=   -6

 WARNING: aliasing errors must be expected set NGX to  26 to avoid them
 WARNING: aliasing errors must be expected set NGY to  26 to avoid them
 NGZ is ok and might be reduce to  24
 aliasing errors are usually negligible using standard VASP settings
 and one can safely disregard these warnings

 serial   3D FFT for wavefunctions
 parallel 3D FFT for charge:
    minimum data exchange during FFTs selected (reduces bandwidth)


 total amount of memory used by VASP on root node    47082. kBytes
========================================================================

   base      :      30000. kBytes
   nonlr-proj:        690. kBytes
   fftplans  :       3916. kBytes
   grid      :      10266. kBytes
   one-center:         18. kBytes
   wavefun   :       2192. kBytes
 
 Broyden mixing: mesh for mixing (old mesh)
   NGX = 13   NGY = 13   NGZ = 13
  (NGX  = 48   NGY  = 48   NGZ  = 48)
  gives a total of   2197 points

 initial charge density was supplied:
 charge density of overlapping atoms calculated
 number of electron       8.0000000 magnetization       3.0000000
 keeping initial charge density in first step


--------------------------------------------------------------------------------------------------------


 Maximum index for non-local projection operator         3463
 Maximum index for augmentation-charges        17549 (set IRDMAX)


--------------------------------------------------------------------------------------------------------


 First call to EWALD:  gamma=   0.610
 Maximum number of real-space cells 3x 3x 3
 Maximum number of reciprocal cells 3x 3x 3

 FEWALD executed in parallel
    FEWALD:  cpu time    0.00: real time    0.00


----------------------------------------- Iteration    1(   1)  ---------------------------------------


    POTLOK:  cpu time    0.25: real time    0.25
    SETDIJ:  cpu time    0.03: real time    0.05
     EDDAV:  cpu time    1.15: real time    1.16
 BZINTS: Fermi energy:  8.714007;  8.000000 electrons
         Band energy: -25.646569;  BLOECHL correction: -0.050046
       DOS:  cpu time    0.00: real time    0.01
    --------------------------------------------
      LOOP:  cpu time    1.43: real time    1.47

 eigenvalue-minimisations  :   400
 total energy-change (2. order) : 0.1132131E+02  (-0.3577854E+03)
 number of electron       8.0000000 magnetization       3.0000000
 augmentation part        8.0000000 magnetization       3.0000000

 Free energy of the ion-electron system (eV)
  ---------------------------------------------------
  alpha Z        PSCENC =         9.27443418
  Ewald energy   TEWEN  =      -305.56705941
  -1/2 Hartree   DENC   =      -139.69536461
  -exchange  EXHF       =         0.00000000
  -V(xc)+E(xc)   XCENC  =        20.72571592
  PAW double counting   =       257.07936916     -247.80739856
  entropy T*S    EENTRO =         0.00000000
  eigenvalues    EBANDS =       -25.64656917
  atomic energy  EATOM  =       442.95818076
  ---------------------------------------------------
  free energy    TOTEN  =        11.32130826 eV

  energy without entropy =       11.32130826  energy(sigma->0) =       11.32130826


--------------------------------------------------------------------------------------------------------




----------------------------------------- Iteration    1(   2)  ---------------------------------------


     EDDAV:  cpu time    1.32: real time    1.32
 BZINTS: Fermi energy: -0.810151;  8.000000 electrons
         Band energy: -50.815216;  BLOECHL correction:  0.000000
       DOS:  cpu time    0.00: real time    0.00
    --------------------------------------------
      LOOP:  cpu time    1.32: real time    1.40

 eigenvalue-minimisations  :   478
 total energy-change (2. order) :-0.2516865E+02  (-0.2456510E+02)
 number of electron       8.0000000 magnetization       3.0000000
 augmentation part        8.0000000 magnetization       3.0000000

 Free energy of the ion-electron system (eV)
  ---------------------------------------------------
  alpha Z        PSCENC =         9.27443418
  Ewald energy   TEWEN  =      -305.56705941
  -1/2 Hartree   DENC   =      -139.69536461
  -exchange  EXHF       =         0.00000000
  -V(xc)+E(xc)   XCENC  =        20.72571592
  PAW double counting   =       257.07936916     -247.80739856
  entropy T*S    EENTRO =         0.00000000
  eigenvalues    EBANDS =       -50.81521567
  atomic energy  EATOM  =       442.95818076
  ---------------------------------------------------
  free energy    TOTEN  =       -13.84733825 eV

  energy without entropy =      -13.84733825  energy(sigma->0) =      -13.84733825


--------------------------------------------------------------------------------------------------------




----------------------------------------- Iteration    1(   3)  ---------------------------------------


     EDDAV:  cpu time    1.26: real time    1.26
 BZINTS: Fermi energy: -0.992259;  8.000000 electrons
         Band energy: -51.529285;  BLOECHL correction:  0.000000
       DOS:  cpu time    0.00: real time    0.00
    --------------------------------------------
      LOOP:  cpu time    1.26: real time    1.26

 eigenvalue-minimisations  :   456
 total energy-change (2. order) :-0.7140690E+00  (-0.7133355E+00)
 number of electron       8.0000000 magnetization       3.0000000
 augmentation part        8.0000000 magnetization       3.0000000

 Free energy of the ion-electron system (eV)
  ---------------------------------------------------
  alpha Z        PSCENC =         9.27443418
  Ewald energy   TEWEN  =      -305.56705941
  -1/2 Hartree   DENC   =      -139.69536461
  -exchange  EXHF       =         0.00000000
  -V(xc)+E(xc)   XCENC  =        20.72571592
  PAW double counting   =       257.07936916     -247.80739856
  entropy T*S    EENTRO =         0.00000000
  eigenvalues    EBANDS =       -51.52928467
  atomic energy  EATOM  =       442.95818076
  ---------------------------------------------------
  free energy    TOTEN  =       -14.56140725 eV

  energy without entropy =      -14.56140725  energy(sigma->0) =      -14.56140725


--------------------------------------------------------------------------------------------------------




----------------------------------------- Iteration    1(   4)  ---------------------------------------


     EDDAV:  cpu time    1.21: real time    1.21
 BZINTS: Fermi energy: -1.007234;  8.000000 electrons
         Band energy: -51.530454;  BLOECHL correction:  0.000000
       DOS:  cpu time    0.00: real time    0.00
    --------------------------------------------
      LOOP:  cpu time    1.21: real time    1.21

 eigenvalue-minimisations  :   430
 total energy-change (2. order) :-0.1169531E-02  (-0.1169467E-02)
 number of electron       8.0000000 magnetization       3.0000000
 augmentation part        8.0000000 magnetization       3.0000000

 Free energy of the ion-electron system (eV)
  ---------------------------------------------------
  alpha Z        PSCENC =         9.27443418
  Ewald energy   TEWEN  =      -305.56705941
  -1/2 Hartree   DENC   =      -139.69536461
  -exchange  EXHF       =         0.00000000
  -V(xc)+E(xc)   XCENC  =        20.72571592
  PAW double counting   =       257.07936916     -247.80739856
  entropy T*S    EENTRO =         0.00000000
  eigenvalues    EBANDS =       -51.53045420
  atomic energy  EATOM  =       442.95818076
  ---------------------------------------------------
  free energy    TOTEN  =       -14.56257678 eV

  energy without entropy =      -14.56257678  energy(sigma->0) =      -14.56257678


--------------------------------------------------------------------------------------------------------




----------------------------------------- Iteration    1(   5)  ---------------------------------------


     EDDAV:  cpu time    1.19: real time    1.19
 BZINTS: Fermi energy: -1.008238;  8.000000 electrons
         Band energy: -51.530457;  BLOECHL correction:  0.000000
       DOS:  cpu time    0.00: real time    0.00
    CHARGE:  cpu time    0.08: real time    0.08
    MIXING:  cpu time    0.00: real time    0.01
    --------------------------------------------
      LOOP:  cpu time    1.27: real time    1.27

 eigenvalue-minimisations  :   420
 total energy-change (2. order) :-0.3119722E-05  (-0.3119727E-05)
 number of electron       8.0000001 magnetization      -1.0697257
 augmentation part        0.8182644 magnetization      -1.0703162

 Broyden mixing:
  rms(total) = 0.11347E+01    rms(broyden)= 0.11346E+01
  rms(prec ) = 0.29116E+01
  weight for this iteration     100.00

 Free energy of the ion-electron system (eV)
  ---------------------------------------------------
  alpha Z        PSCENC =         9.27443418
  Ewald energy   TEWEN  =      -305.56705941
  -1/2 Hartree   DENC   =      -139.69536461
  -exchange  EXHF       =         0.00000000
  -V(xc)+E(xc)   XCENC  =        20.72571592
  PAW double counting   =       257.07936916     -247.80739856
  entropy T*S    EENTRO =         0.00000000
  eigenvalues    EBANDS =       -51.53045732
  atomic energy  EATOM  =       442.95818076
  ---------------------------------------------------
  free energy    TOTEN  =       -14.56257990 eV

  energy without entropy =      -14.56257990  energy(sigma->0) =      -14.56257990


--------------------------------------------------------------------------------------------------------




----------------------------------------- Iteration    1(   6)  ---------------------------------------


    POTLOK:  cpu time    0.24: real time    0.24
    SETDIJ:  cpu time    0.03: real time    0.03
    EDDIAG:  cpu time    0.23: real time    0.23
  RMM-DIIS:  cpu time    0.79: real time    0.79
    ORTHCH:  cpu time    0.00: real time    0.00
 BZINTS: Fermi energy:  1.325663;  8.000000 electrons
         Band energy: -30.370918;  BLOECHL correction:  0.000000
       DOS:  cpu time    0.00: real time    0.00
    CHARGE:  cpu time    0.07: real time    0.07
    MIXING:  cpu time    0.00: real time    0.01
    --------------------------------------------
      LOOP:  cpu time    1.37: real time    1.37

 eigenvalue-minimisations  :   400
 total energy-change (2. order) : 0.4035639E+00  (-0.3587864E+00)
 number of electron       8.0000001 magnetization       0.2121476
 augmentation part        0.6549481 magnetization       0.2143464

 Broyden mixing:
  rms(total) = 0.44745E+00    rms(broyden)= 0.44737E+00
  rms(prec ) = 0.76021E+00
  weight for this iteration     100.00

 eigenvalues of (default mixing * dielectric matrix)
  average eigenvalue GAMMA=   0.7187
  0.7187

 Free energy of the ion-electron system (eV)
  ---------------------------------------------------
  alpha Z        PSCENC =         9.27443418
  Ewald energy   TEWEN  =      -305.56705941
  -1/2 Hartree   DENC   =      -160.72150332
  -exchange  EXHF       =         0.00000000
  -V(xc)+E(xc)   XCENC  =        21.37915851
  PAW double counting   =       304.18991354     -295.30122210
  entropy T*S    EENTRO =         0.00000000
  eigenvalues    EBANDS =       -30.37091816
  atomic energy  EATOM  =       442.95818076
  ---------------------------------------------------
  free energy    TOTEN  =       -14.15901601 eV

  energy without entropy =      -14.15901601  energy(sigma->0) =      -14.15901601


--------------------------------------------------------------------------------------------------------




----------------------------------------- Iteration    1(   7)  ---------------------------------------


    POTLOK:  cpu time    0.24: real time    0.24
    SETDIJ:  cpu time    0.03: real time    0.03
    EDDIAG:  cpu time    0.23: real time    0.23
  RMM-DIIS:  cpu time    0.80: real time    0.80
    ORTHCH:  cpu time    0.00: real time    0.00
 BZINTS: Fermi energy:  0.841831;  8.000000 electrons
         Band energy: -31.630726;  BLOECHL correction:  0.000000
       DOS:  cpu time    0.00: real time    0.00
    CHARGE:  cpu time    0.07: real time    0.07
    MIXING:  cpu time    0.00: real time    0.01
    --------------------------------------------
      LOOP:  cpu time    1.37: real time    1.51

 eigenvalue-minimisations  :   400
 total energy-change (2. order) :-0.1514995E+00  (-0.1001057E-01)
 number of electron       8.0000001 magnetization      -0.1799457
 augmentation part        0.6687855 magnetization      -0.1789341

 Broyden mixing:
  rms(total) = 0.17062E+00    rms(broyden)= 0.17062E+00
  rms(prec ) = 0.40543E+00
  weight for this iteration     100.00

 eigenvalues of (default mixing * dielectric matrix)
  average eigenvalue GAMMA=   0.7291
  0.7291  0.7291

 Free energy of the ion-electron system (eV)
  ---------------------------------------------------
  alpha Z        PSCENC =         9.27443418
  Ewald energy   TEWEN  =      -305.56705941
  -1/2 Hartree   DENC   =      -159.47369054
  -exchange  EXHF       =         0.00000000
  -V(xc)+E(xc)   XCENC  =        21.19161687
  PAW double counting   =       304.43730957     -295.50058103
  entropy T*S    EENTRO =         0.00000000
  eigenvalues    EBANDS =       -31.63072591
  atomic energy  EATOM  =       442.95818076
  ---------------------------------------------------
  free energy    TOTEN  =       -14.31051553 eV

  energy without entropy =      -14.31051553  energy(sigma->0) =      -14.31051553


--------------------------------------------------------------------------------------------------------




----------------------------------------- Iteration    1(   8)  ---------------------------------------


    POTLOK:  cpu time    0.24: real time    0.24
    SETDIJ:  cpu time    0.03: real time    0.03
    EDDIAG:  cpu time    0.22: real time    0.23
  RMM-DIIS:  cpu time    0.80: real time    0.80
    ORTHCH:  cpu time    0.00: real time    0.00
 BZINTS: Fermi energy:  0.921738;  8.000000 electrons
         Band energy: -31.193280;  BLOECHL correction:  0.000000
       DOS:  cpu time    0.00: real time    0.00
    CHARGE:  cpu time    0.07: real time    0.07
    MIXING:  cpu time    0.01: real time    0.01
    --------------------------------------------
      LOOP:  cpu time    1.38: real time    1.38

 eigenvalue-minimisations  :   400
 total energy-change (2. order) : 0.8043432E-02  (-0.2928292E-02)
 number of electron       8.0000001 magnetization      -0.0109393
 augmentation part        0.6743038 magnetization      -0.0119137

 Broyden mixing:
  rms(total) = 0.95247E-01    rms(broyden)= 0.95245E-01
  rms(prec ) = 0.20399E+00
  weight for this iteration     100.00

 eigenvalues of (default mixing * dielectric matrix)
  average eigenvalue GAMMA=   1.3850
  2.6086  0.8270  0.7193

 Free energy of the ion-electron system (eV)
  ---------------------------------------------------
  alpha Z        PSCENC =         9.27443418
  Ewald energy   TEWEN  =      -305.56705941
  -1/2 Hartree   DENC   =      -159.96309665
  -exchange  EXHF       =         0.00000000
  -V(xc)+E(xc)   XCENC  =        21.24481893
  PAW double counting   =       307.94411252     -299.00058273
  entropy T*S    EENTRO =         0.00000000
  eigenvalues    EBANDS =       -31.19327969
  atomic energy  EATOM  =       442.95818076
  ---------------------------------------------------
  free energy    TOTEN  =       -14.30247210 eV

  energy without entropy =      -14.30247210  energy(sigma->0) =      -14.30247210


--------------------------------------------------------------------------------------------------------




----------------------------------------- Iteration    1(   9)  ---------------------------------------


    POTLOK:  cpu time    0.24: real time    0.24
    SETDIJ:  cpu time    0.03: real time    0.03
    EDDIAG:  cpu time    0.22: real time    0.23
  RMM-DIIS:  cpu time    0.80: real time    0.80
    ORTHCH:  cpu time    0.00: real time    0.00
 BZINTS: Fermi energy:  0.922126;  8.000000 electrons
         Band energy: -30.132036;  BLOECHL correction:  0.000000
       DOS:  cpu time    0.00: real time    0.00
    CHARGE:  cpu time    0.07: real time    0.07
    MIXING:  cpu time    0.01: real time    0.01
    --------------------------------------------
      LOOP:  cpu time    1.37: real time    1.37

 eigenvalue-minimisations  :   400
 total energy-change (2. order) :-0.9114384E-02  (-0.1095589E-02)
 number of electron       8.0000001 magnetization       0.0027596
 augmentation part        0.6736201 magnetization       0.0021391

 Broyden mixing:
  rms(total) = 0.16645E-01    rms(broyden)= 0.16644E-01
  rms(prec ) = 0.39703E-01
  weight for this iteration     100.00

 eigenvalues of (default mixing * dielectric matrix)
  average eigenvalue GAMMA=   1.1953
  2.5752  0.7787  0.7137  0.7137

 Free energy of the ion-electron system (eV)
  ---------------------------------------------------
  alpha Z        PSCENC =         9.27443418
  Ewald energy   TEWEN  =      -305.56705941
  -1/2 Hartree   DENC   =      -161.11975934
  -exchange  EXHF       =         0.00000000
  -V(xc)+E(xc)   XCENC  =        21.34333244
  PAW double counting   =       311.77113366     -302.83981234
  entropy T*S    EENTRO =         0.00000000
  eigenvalues    EBANDS =       -30.13203643
  atomic energy  EATOM  =       442.95818076
  ---------------------------------------------------
  free energy    TOTEN  =       -14.31158648 eV

  energy without entropy =      -14.31158648  energy(sigma->0) =      -14.31158648


--------------------------------------------------------------------------------------------------------




----------------------------------------- Iteration    1(  10)  ---------------------------------------


    POTLOK:  cpu time    0.24: real time    0.24
    SETDIJ:  cpu time    0.03: real time    0.03
    EDDIAG:  cpu time    0.23: real time    0.23
  RMM-DIIS:  cpu time    0.62: real time    0.62
    ORTHCH:  cpu time    0.00: real time    0.00
 BZINTS: Fermi energy:  0.976884;  8.000000 electrons
         Band energy: -29.937510;  BLOECHL correction:  0.000000
       DOS:  cpu time    0.00: real time    0.00
    --------------------------------------------
      LOOP:  cpu time    1.12: real time    1.24

 eigenvalue-minimisations  :   289
 total energy-change (2. order) :-0.7615417E-04  (-0.6914643E-04)
 number of electron       8.0000001 magnetization       0.0027596
 augmentation part        0.6736201 magnetization       0.0021391

 Free energy of the ion-electron system (eV)
  ---------------------------------------------------
  alpha Z        PSCENC =         9.27443418
  Ewald energy   TEWEN  =      -305.56705941
  -1/2 Hartree   DENC   =      -161.32251610
  -exchange  EXHF       =         0.00000000
  -V(xc)+E(xc)   XCENC  =        21.35680090
  PAW double counting   =       311.45746035     -302.53145373
  entropy T*S    EENTRO =         0.00000000
  eigenvalues    EBANDS =       -29.93750958
  atomic energy  EATOM  =       442.95818076
  ---------------------------------------------------
  free energy    TOTEN  =       -14.31166264 eV

  energy without entropy =      -14.31166264  energy(sigma->0) =      -14.31166264


--------------------------------------------------------------------------------------------------------




 average (electrostatic) potential at core
  the test charge radii are     0.9748  0.7215
  (the norm of the test charge is              1.0000)
       1 -26.1899       2 -26.1899       3 -71.3670
 
 
 
 E-fermi :   0.9769     XC(G=0):  -9.3736     alpha+bet :-15.0502


 spin component 1

 k-point   1 :       0.1250    0.1250    0.1250
  band No.  band energies     occupation 
      1     -14.4769      1.00000
      2       0.4703      1.00000
      3       0.9109      1.00000
      4       0.9109      1.00000
      5       6.7001      0.00000
      6      12.9916      0.00000
      7      13.1891      0.00000
      8      13.1891      0.00000
      9      18.7232      0.00000
     10      18.7232      0.00000

 k-point   2 :       0.3750    0.1250    0.1250
  band No.  band energies     occupation 
      1     -14.3321      1.00000
      2      -0.8989      1.00000
      3       0.3171      1.00000
      4       0.7346      1.00000
      5       8.2117      0.00000
      6      12.1716      0.00000
      7      13.6633      0.00000
      8      14.2018      0.00000
      9      16.1438      0.00000
     10      19.8123      0.00000

 k-point   3 :      -0.3750    0.1250    0.1250
  band No.  band energies     occupation 
      1     -14.2409      1.00000
      2      -1.6483      1.00000
      3       0.3531      1.00000
      4       0.3846      1.00000
      5       9.3858      0.00000
      6      11.3339      0.00000
      7      13.3676      0.00000
      8      13.8286      0.00000
      9      18.2654      0.00000
     10      19.4206      0.00000

 k-point   4 :      -0.1250    0.1250    0.1250
  band No.  band energies     occupation 
      1     -14.3953      1.00000
      2      -0.2223      1.00000
      3       0.5362      1.00000
      4       0.6861      1.00000
      5       7.3568      0.00000
      6      13.0251      0.00000
      7      13.3391      0.00000
      8      14.0170      0.00000
      9      15.9631      0.00000
     10      20.4809      0.00000

 k-point   5 :       0.3750    0.3750    0.1250
  band No.  band energies     occupation 
      1     -14.2802      1.00000
      2      -0.7036      1.00000
      3       0.0471      1.00000
      4       0.1449      1.00000
      5       7.2387      0.00000
      6      13.3043      0.00000
      7      13.8568      0.00000
      8      14.9881      0.00000
      9      15.7645      0.00000
     10      22.5368      0.00000

 k-point   6 :      -0.3750    0.3750    0.1250
  band No.  band energies     occupation 
      1     -14.1912      1.00000
      2      -1.0756      1.00000
      3      -0.3794      1.00000
      4      -0.2006      1.00000
      5       7.9293      0.00000
      6      11.9673      0.00000
      7      14.6850      0.00000
      8      15.2179      0.00000
      9      18.0326      0.00000
     10      20.2952      0.00000

 k-point   7 :      -0.1250    0.3750    0.1250
  band No.  band energies     occupation 
      1     -14.2475      1.00000
      2      -1.2352      1.00000
      3      -0.0454      1.00000
      4       0.3418      1.00000
      5       8.4734      0.00000
      6      11.7662      0.00000
      7      14.1302      0.00000
      8      14.5849      0.00000
      9      16.8518      0.00000
     10      20.4221      0.00000

 k-point   8 :      -0.3750   -0.3750    0.1250
  band No.  band energies     occupation 
      1     -14.1995      1.00000
      2      -0.7432      1.00000
      3      -0.4018      1.00000
      4      -0.2740      1.00000
      5       6.5547      0.00000
      6      13.8497      0.00000
      7      14.4252      0.00000
      8      15.5750      0.00000
      9      16.8995      0.00000
     10      21.8919      0.00000

 k-point   9 :       0.3750    0.3750    0.3750
  band No.  band energies     occupation 
      1     -14.2915      1.00000
      2      -1.4590      1.00000
      3       0.5975      1.00000
      4       0.5975      1.00000
      5       9.0147      0.00000
      6      11.9345      0.00000
      7      13.2592      0.00000
      8      13.2592      0.00000
      9      18.4042      0.00000
     10      18.4042      0.00000

 k-point  10 :      -0.3750    0.3750    0.3750
  band No.  band energies     occupation 
      1     -14.2105      1.00000
      2      -1.3865      1.00000
      3      -0.2331      1.00000
      4       0.2241      1.00000
      5       8.7789      0.00000
      6      11.4725      0.00000
      7      14.0967      0.00000
      8      14.7531      0.00000
      9      18.5690      0.00000
     10      18.8524      0.00000

 spin component 2

 k-point   1 :       0.1250    0.1250    0.1250
  band No.  band energies     occupation 
      1     -14.4765      1.00000
      2       0.4732      1.00000
      3       0.9132      1.00000
      4       0.9132      1.00000
      5       6.7088      0.00000
      6      12.9986      0.00000
      7      13.1961      0.00000
      8      13.1961      0.00000
      9      18.7318      0.00000
     10      18.7318      0.00000

 k-point   2 :       0.3750    0.1250    0.1250
  band No.  band energies     occupation 
      1     -14.3318      1.00000
      2      -0.8946      1.00000
      3       0.3200      1.00000
      4       0.7370      1.00000
      5       8.2200      0.00000
      6      12.1789      0.00000
      7      13.6702      0.00000
      8      14.2095      0.00000
      9      16.1512      0.00000
     10      19.8190      0.00000

 k-point   3 :      -0.3750    0.1250    0.1250
  band No.  band energies     occupation 
      1     -14.2408      1.00000
      2      -1.6434      1.00000
      3       0.3558      1.00000
      4       0.3873      1.00000
      5       9.3947      0.00000
      6      11.3405      0.00000
      7      13.3754      0.00000
      8      13.8362      0.00000
      9      18.2713      0.00000
     10      19.4261      0.00000

 k-point   4 :      -0.1250    0.1250    0.1250
  band No.  band energies     occupation 
      1     -14.3950      1.00000
      2      -0.2187      1.00000
      3       0.5389      1.00000
      4       0.6886      1.00000
      5       7.3654      0.00000
      6      13.0321      0.00000
      7      13.3461      0.00000
      8      14.0239      0.00000
      9      15.9712      0.00000
     10      20.4885      0.00000

 k-point   5 :       0.3750    0.3750    0.1250
  band No.  band energies     occupation 
      1     -14.2801      1.00000
      2      -0.6996      1.00000
      3       0.0502      1.00000
      4       0.1478      1.00000
      5       7.2483      0.00000
      6      13.3110      0.00000
      7      13.8636      0.00000
      8      14.9951      0.00000
      9      15.7711      0.00000
     10      22.5381      0.00000

 k-point   6 :      -0.3750    0.3750    0.1250
  band No.  band energies     occupation 
      1     -14.1911      1.00000
      2      -1.0712      1.00000
      3      -0.3760      1.00000
      4      -0.1973      1.00000
      5       7.9390      0.00000
      6      11.9741      0.00000
      7      14.6914      0.00000
      8      15.2241      0.00000
      9      18.0388      0.00000
     10      20.3011      0.00000

 k-point   7 :      -0.1250    0.3750    0.1250
  band No.  band energies     occupation 
      1     -14.2474      1.00000
      2      -1.2306      1.00000
      3      -0.0423      1.00000
      4       0.3446      1.00000
      5       8.4825      0.00000
      6      11.7732      0.00000
      7      14.1370      0.00000
      8      14.5922      0.00000
      9      16.8582      0.00000
     10      20.4279      0.00000

 k-point   8 :      -0.3750   -0.3750    0.1250
  band No.  band energies     occupation 
      1     -14.1994      1.00000
      2      -0.7394      1.00000
      3      -0.3984      1.00000
      4      -0.2707      1.00000
      5       6.5652      0.00000
      6      13.8560      0.00000
      7      14.4317      0.00000
      8      15.5810      0.00000
      9      16.9059      0.00000
     10      21.8984      0.00000

 k-point   9 :       0.3750    0.3750    0.3750
  band No.  band energies     occupation 
      1     -14.2913      1.00000
      2      -1.4543      1.00000
      3       0.6000      1.00000
      4       0.6000      1.00000
      5       9.0229      0.00000
      6      11.9416      0.00000
      7      13.2672      0.00000
      8      13.2672      0.00000
      9      18.4105      0.00000
     10      18.4105      0.00000

 k-point  10 :      -0.3750    0.3750    0.3750
  band No.  band energies     occupation 
      1     -14.2105      1.00000
      2      -1.3818      1.00000
      3      -0.2299      1.00000
      4       0.2270      1.00000
      5       8.7884      0.00000
      6      11.4790      0.00000
      7      14.1042      0.00000
      8      14.7595      0.00000
      9      18.5751      0.00000
     10      18.8583      0.00000


--------------------------------------------------------------------------------------------------------


 soft charge-density along one line, spin component           1
         0         1         2         3         4         5         6         7         8         9
 total charge-density along one line
 
 soft charge-density along one line, spin component           2
         0         1         2         3         4         5         6         7         8         9
 total charge-density along one line
 
 pseudopotential strength for first ion, spin component:           1
  1.185  -0.045   0.000   0.000   0.000
 -0.045  -0.052  -0.000  -0.000  -0.000
  0.000  -0.000  -0.310   0.000   0.000
  0.000  -0.000   0.000  -0.310   0.000
  0.000  -0.000   0.000   0.000  -0.310
 pseudopotential strength for first ion, spin component:           2
  1.185  -0.045   0.000   0.000   0.000
 -0.045  -0.052  -0.000  -0.000  -0.000
  0.000  -0.000  -0.306  -0.000  -0.000
  0.000  -0.000  -0.000  -0.306  -0.000
  0.000  -0.000  -0.000  -0.000  -0.306
 total augmentation occupancy for first ion, spin component:           1
  1.048  -0.126   0.000   0.000  -0.000
 -0.126   0.017   0.000  -0.000  -0.000
  0.000  -0.000   0.125  -0.000   0.000
  0.000  -0.000   0.000   0.125  -0.000
  0.000  -0.000  -0.000   0.000   0.125
 total augmentation occupancy for first ion, spin component:           2
  0.001  -0.001   0.000   0.000   0.000
 -0.001   0.000   0.000   0.000   0.000
  0.000   0.000   0.000   0.000   0.000
  0.000   0.000   0.000   0.000   0.000
  0.000   0.000   0.000   0.000   0.000


------------------------ aborting loop because EDIFF is reached ----------------------------------------


 


 total charge     
 
# of ion     s       p       d       tot
----------------------------------------
  1        0.131   0.272   0.000   0.403
  2        0.131   0.272   0.000   0.403
  3        1.535   3.502   0.000   5.037
------------------------------------------------
tot        1.797   4.047   0.000   5.844
 


 magnetization (x)
 
# of ion     s       p       d       tot
----------------------------------------
  1        0.000   0.000   0.000   0.000
  2        0.000   0.000   0.000   0.000
  3       -0.000  -0.001   0.000  -0.001
------------------------------------------------
tot       -0.000  -0.000   0.000  -0.001
 
    CHARGE:  cpu time    0.07: real time    0.07
    FORLOC:  cpu time    0.01: real time    0.01
    FORNL :  cpu time    0.50: real time    0.50
    STRESS:  cpu time    1.51: real time    1.58
    FORCOR:  cpu time    0.23: real time    0.23
    FORHAR:  cpu time    0.03: real time    0.03
    MIXING:  cpu time    0.01: real time    0.01
    FORVDW:  cpu time    0.00: real time    0.01

  FORCE on cell =-STRESS in cart. coord.  units (eV):
  Direction    XX          YY          ZZ          XY          YZ          ZX
  --------------------------------------------------------------------------------------
  Alpha Z     9.27443     9.27443     9.27443
  Ewald    -101.85572  -101.85572  -101.85572     0.00000     0.00000     0.00000
  Hartree    53.79513    53.79513    53.79513     0.00000     0.00000     0.00000
  E(xc)     -35.29728   -35.29728   -35.29728    -0.00001    -0.00001    -0.00001
  Local     -51.81503   -51.81503   -51.81503     0.00003     0.00003     0.00003
  n-local   -20.20334   -21.43659   -21.12392     0.37378    -0.03997    -0.32638
  augment     6.91572     6.91572     6.91572     0.00002     0.00002     0.00002
  Kinetic   140.78081   139.19581   140.48869    -2.43591     0.23753     2.15674
  Fock        0.00000     0.00000     0.00000     0.00000     0.00000     0.00000
  -------------------------------------------------------------------------------------
  Total       0.25107     0.25107     0.25107    -0.00000     0.00000    -0.00000
  in kB      16.42361    16.42361    16.42361    -0.00000     0.00000    -0.00000
  external pressure =       16.42 kB  Pullay stress =        0.00 kB


 VOLUME and BASIS-vectors are now :
 -----------------------------------------------------------------------------
  energy-cutoff  :      520.00
  volume of cell :       24.49
      direct lattice vectors                 reciprocal lattice vectors
     2.305000000  2.305000000  0.000000000     0.216919740  0.216919740 -0.216919740
     0.000000000  2.305000000  2.305000000    -0.216919740  0.216919740  0.216919740
     2.305000000  0.000000000  2.305000000     0.216919740 -0.216919740  0.216919740

  length of vectors
     3.259762261  3.259762261  3.259762261     0.375716010  0.375716010  0.375716010


 FORCES acting on ions
    electron-ion (+dipol)            ewald-force                    non-local-force                 convergence-correction
 -----------------------------------------------------------------------------------------------
   0.740E-06 0.698E-06 0.740E-06   -.139E-14 -.435E-14 -.334E-14   -.104E-16 -.234E-16 -.104E-16   0.319E-08 0.319E-08 0.319E-08
   -.740E-06 -.698E-06 -.740E-06   0.202E-14 0.463E-14 0.323E-14   0.208E-16 0.282E-17 0.694E-17   -.319E-08 -.319E-08 -.319E-08
   -.193E-14 -.258E-14 -.108E-14   -.548E-15 0.241E-16 0.180E-15   0.331E-23 0.000E+00 0.000E+00   -.289E-14 -.561E-14 -.520E-14
 -----------------------------------------------------------------------------------------------
   0.637E-14 0.152E-13 -.204E-12   0.787E-16 0.302E-15 0.718E-16   0.104E-16 -.206E-16 -.347E-17   -.289E-14 -.563E-14 -.520E-14
 
 
 POSITION                                       TOTAL-FORCE (eV/Angst)
 -----------------------------------------------------------------------------------
      3.45750      3.45750      3.45750        -0.000000     -0.000000     -0.000000
      1.15250      1.15250      1.15250         0.000000      0.000000      0.000000
      0.00000      0.00000      0.00000        -0.000000     -0.000000     -0.000000
 -----------------------------------------------------------------------------------
    total drift:                                0.000000      0.000000     -0.000000


--------------------------------------------------------------------------------------------------------



  FREE ENERGIE OF THE ION-ELECTRON SYSTEM (eV)
  ---------------------------------------------------
  free  energy   TOTEN  =       -14.31166264 eV

  energy  without entropy=      -14.31166264  energy(sigma->0) =      -14.31166264
 


--------------------------------------------------------------------------------------------------------


    POTLOK:  cpu time    0.26: real time    0.26


--------------------------------------------------------------------------------------------------------




--------------------------------------------------------------------------------------------------------


    WAVPRE:  cpu time    0.03: real time    0.03
 FEWALD executed in parallel
    FEWALD:  cpu time    0.00: real time    0.00
    GENKIN:  cpu time    0.00: real time    0.00
    ORTHCH:  cpu time    0.14: real time    0.14
     LOOP+:  cpu time   16.26: real time   16.74


----------------------------------------- Iteration    2(   1)  ---------------------------------------


    POTLOK:  cpu time    0.24: real time    0.24
    SETDIJ:  cpu time    0.03: real time    0.03
     EDDAV:  cpu time    1.18: real time    1.18
 BZINTS: Fermi energy:  0.733052;  8.000000 electrons
         Band energy: -31.405202;  BLOECHL correction:  0.000000
       DOS:  cpu time    0.00: real time    0.00
    CHARGE:  cpu time    0.07: real time    0.07
    MIXING:  cpu time    0.00: real time    0.00
    --------------------------------------------
      LOOP:  cpu time    1.53: real time    1.53

 eigenvalue-minimisations  :   420
 total energy-change (2. order) :-0.9423105E-02  (-0.1555199E-01)
 number of electron       7.9999998 magnetization      -0.0008232
 augmentation part        0.6797644 magnetization      -0.0005493

 Broyden mixing:
  rms(total) = 0.66408E-01    rms(broyden)= 0.66392E-01
  rms(prec ) = 0.19566E+00
  weight for this iteration     100.00

 Free energy of the ion-electron system (eV)
  ---------------------------------------------------
  alpha Z        PSCENC =         9.16299911
  Ewald energy   TEWEN  =      -304.33829871
  -1/2 Hartree   DENC   =      -160.86367033
  -exchange  EXHF       =         0.00000000
  -V(xc)+E(xc)   XCENC  =        21.24601002
  PAW double counting   =       310.10299251     -301.18402118
  entropy T*S    EENTRO =         0.00000000
  eigenvalues    EBANDS =       -31.40520177
  atomic energy  EATOM  =       442.95818076
  ---------------------------------------------------
  free energy    TOTEN  =       -14.32100959 eV

  energy without entropy =      -14.32100959  energy(sigma->0) =      -14.32100959


--------------------------------------------------------------------------------------------------------




----------------------------------------- Iteration    2(   2)  ---------------------------------------


    POTLOK:  cpu time    0.24: real time    0.24
    SETDIJ:  cpu time    0.03: real time    0.03
    EDDIAG:  cpu time    0.23: real time    0.23
  RMM-DIIS:  cpu time    0.78: real time    0.78
    ORTHCH:  cpu time    0.00: real time    0.00
 BZINTS: Fermi energy:  0.988252;  8.000000 electrons
         Band energy: -30.026779;  BLOECHL correction:  0.000000
       DOS:  cpu time    0.00: real time    0.00
    CHARGE:  cpu time    0.07: real time    0.07
    MIXING:  cpu time    0.01: real time    0.01
    --------------------------------------------
      LOOP:  cpu time    1.36: real time    1.36

 eigenvalue-minimisations  :   400
 total energy-change (2. order) : 0.7311617E-02  (-0.2087361E-02)
 number of electron       7.9999998 magnetization       0.0001569
 augmentation part        0.6680384 magnetization       0.0001848

 Broyden mixing:
  rms(total) = 0.85034E-02    rms(broyden)= 0.84863E-02
  rms(prec ) = 0.29958E-01
  weight for this iteration     100.00

 eigenvalues of (default mixing * dielectric matrix)
  average eigenvalue GAMMA=   0.9157
  0.9157

 Free energy of the ion-electron system (eV)
  ---------------------------------------------------
  alpha Z        PSCENC =         9.16299911
  Ewald energy   TEWEN  =      -304.33829871
  -1/2 Hartree   DENC   =      -162.31844603
  -exchange  EXHF       =         0.00000000
  -V(xc)+E(xc)   XCENC  =        21.34138983
  PAW double counting   =       311.74217546     -302.83491957
  entropy T*S    EENTRO =         0.00000000
  eigenvalues    EBANDS =       -30.02677882
  atomic energy  EATOM  =       442.95818076
  ---------------------------------------------------
  free energy    TOTEN  =       -14.31369797 eV

  energy without entropy =      -14.31369797  energy(sigma->0) =      -14.31369797


--------------------------------------------------------------------------------------------------------




----------------------------------------- Iteration    2(   3)  ---------------------------------------


    POTLOK:  cpu time    0.24: real time    0.24
    SETDIJ:  cpu time    0.03: real time    0.03
    EDDIAG:  cpu time    0.23: real time    0.23
  RMM-DIIS:  cpu time    0.47: real time    0.47
    ORTHCH:  cpu time    0.00: real time    0.00
 BZINTS: Fermi energy:  0.870437;  8.000000 electrons
         Band energy: -30.227248;  BLOECHL correction:  0.000000
       DOS:  cpu time    0.00: real time    0.00
    CHARGE:  cpu time    0.07: real time    0.07
    MIXING:  cpu time    0.00: real time    0.01
    --------------------------------------------
      LOOP:  cpu time    1.05: real time    1.05

 eigenvalue-minimisations  :   204
 total energy-change (2. order) : 0.3089003E-03  (-0.2546495E-04)
 number of electron       7.9999998 magnetization      -0.0003815
 augmentation part        0.6694182 magnetization      -0.0003797

 Broyden mixing:
  rms(total) = 0.34300E-02    rms(broyden)= 0.34299E-02
  rms(prec ) = 0.84163E-02
  weight for this iteration     100.00

 eigenvalues of (default mixing * dielectric matrix)
  average eigenvalue GAMMA=   1.1737
  0.8808  1.4667

 Free energy of the ion-electron system (eV)
  ---------------------------------------------------
  alpha Z        PSCENC =         9.16299911
  Ewald energy   TEWEN  =      -304.33829871
  -1/2 Hartree   DENC   =      -162.11530866
  -exchange  EXHF       =         0.00000000
  -V(xc)+E(xc)   XCENC  =        21.32777588
  PAW double counting   =       310.68720121     -301.76869108
  entropy T*S    EENTRO =         0.00000000
  eigenvalues    EBANDS =       -30.22724758
  atomic energy  EATOM  =       442.95818076
  ---------------------------------------------------
  free energy    TOTEN  =       -14.31338907 eV

  energy without entropy =      -14.31338907  energy(sigma->0) =      -14.31338907


--------------------------------------------------------------------------------------------------------




----------------------------------------- Iteration    2(   4)  ---------------------------------------


    POTLOK:  cpu time    0.24: real time    0.24
    SETDIJ:  cpu time    0.03: real time    0.03
    EDDIAG:  cpu time    0.23: real time    0.23
  RMM-DIIS:  cpu time    0.47: real time    0.47
    ORTHCH:  cpu time    0.00: real time    0.00
 BZINTS: Fermi energy:  0.863022;  8.000000 electrons
         Band energy: -30.320751;  BLOECHL correction:  0.000000
       DOS:  cpu time    0.00: real time    0.00
    CHARGE:  cpu time    0.07: real time    0.07
    MIXING:  cpu time    0.00: real time    0.01
    --------------------------------------------
      LOOP:  cpu time    1.04: real time    1.05

 eigenvalue-minimisations  :   202
 total energy-change (2. order) : 0.2245613E-04  (-0.1148319E-04)
 number of electron       7.9999998 magnetization      -0.0000433
 augmentation part        0.6703695 magnetization      -0.0000417

 Broyden mixing:
  rms(total) = 0.29657E-02    rms(broyden)= 0.29647E-02
  rms(prec ) = 0.80954E-02
  weight for this iteration     100.00

 eigenvalues of (default mixing * dielectric matrix)
  average eigenvalue GAMMA=   1.2691
  2.3421  0.8566  0.6087

 Free energy of the ion-electron system (eV)
  ---------------------------------------------------
  alpha Z        PSCENC =         9.16299911
  Ewald energy   TEWEN  =      -304.33829871
  -1/2 Hartree   DENC   =      -162.02865378
  -exchange  EXHF       =         0.00000000
  -V(xc)+E(xc)   XCENC  =        21.32161272
  PAW double counting   =       309.46514906     -300.53360430
  entropy T*S    EENTRO =         0.00000000
  eigenvalues    EBANDS =       -30.32075148
  atomic energy  EATOM  =       442.95818076
  ---------------------------------------------------
  free energy    TOTEN  =       -14.31336661 eV

  energy without entropy =      -14.31336661  energy(sigma->0) =      -14.31336661


--------------------------------------------------------------------------------------------------------




----------------------------------------- Iteration    2(   5)  ---------------------------------------


    POTLOK:  cpu time    0.24: real time    0.24
    SETDIJ:  cpu time    0.03: real time    0.03
    EDDIAG:  cpu time    0.23: real time    0.23
  RMM-DIIS:  cpu time    0.33: real time    0.33
    ORTHCH:  cpu time    0.00: real time    0.00
 BZINTS: Fermi energy:  0.865768;  8.000000 electrons
         Band energy: -30.291935;  BLOECHL correction:  0.000000
       DOS:  cpu time    0.00: real time    0.00
    CHARGE:  cpu time    0.07: real time    0.07
    MIXING:  cpu time    0.01: real time    0.01
    --------------------------------------------
      LOOP:  cpu time    0.91: real time    0.91

 eigenvalue-minimisations  :    27
 total energy-change (2. order) : 0.1968444E-04  (-0.3262433E-06)
 number of electron       7.9999998 magnetization       0.0000728
 augmentation part        0.6702690 magnetization       0.0000680

 Broyden mixing:
  rms(total) = 0.14411E-02    rms(broyden)= 0.14411E-02
  rms(prec ) = 0.43139E-02
  weight for this iteration     100.00

 eigenvalues of (default mixing * dielectric matrix)
  average eigenvalue GAMMA=   1.3389
  2.4742  1.2852  0.9572  0.6390

 Free energy of the ion-electron system (eV)
  ---------------------------------------------------
  alpha Z        PSCENC =         9.16299911
  Ewald energy   TEWEN  =      -304.33829871
  -1/2 Hartree   DENC   =      -162.05910624
  -exchange  EXHF       =         0.00000000
  -V(xc)+E(xc)   XCENC  =        21.32358513
  PAW double counting   =       309.47234801     -300.54112010
  entropy T*S    EENTRO =         0.00000000
  eigenvalues    EBANDS =       -30.29193490
  atomic energy  EATOM  =       442.95818076
  ---------------------------------------------------
  free energy    TOTEN  =       -14.31334693 eV

  energy without entropy =      -14.31334693  energy(sigma->0) =      -14.31334693


--------------------------------------------------------------------------------------------------------




----------------------------------------- Iteration    2(   6)  ---------------------------------------


    POTLOK:  cpu time    0.24: real time    0.24
    SETDIJ:  cpu time    0.03: real time    0.03
    EDDIAG:  cpu time    0.23: real time    0.23
  RMM-DIIS:  cpu time    0.43: real time    0.43
    ORTHCH:  cpu time    0.00: real time    0.00
 BZINTS: Fermi energy:  0.869514;  8.000000 electrons
         Band energy: -30.247954;  BLOECHL correction:  0.000000
       DOS:  cpu time    0.00: real time    0.00
    --------------------------------------------
      LOOP:  cpu time    0.93: real time    0.93

 eigenvalue-minimisations  :   158
 total energy-change (2. order) :-0.3449175E-06  (-0.4662267E-05)
 number of electron       7.9999998 magnetization       0.0000728
 augmentation part        0.6702690 magnetization       0.0000680

 Free energy of the ion-electron system (eV)
  ---------------------------------------------------
  alpha Z        PSCENC =         9.16299911
  Ewald energy   TEWEN  =      -304.33829871
  -1/2 Hartree   DENC   =      -162.10442479
  -exchange  EXHF       =         0.00000000
  -V(xc)+E(xc)   XCENC  =        21.32652434
  PAW double counting   =       309.53726444     -300.60763867
  entropy T*S    EENTRO =         0.00000000
  eigenvalues    EBANDS =       -30.24795375
  atomic energy  EATOM  =       442.95818076
  ---------------------------------------------------
  free energy    TOTEN  =       -14.31334727 eV

  energy without entropy =      -14.31334727  energy(sigma->0) =      -14.31334727


--------------------------------------------------------------------------------------------------------




 average (electrostatic) potential at core
  the test charge radii are     0.9748  0.7215
  (the norm of the test charge is              1.0000)
       1 -26.2726       2 -26.2726       3 -71.4166
 
 
 
 E-fermi :   0.8695     XC(G=0):  -9.3169     alpha+bet :-14.8694


 spin component 1

 k-point   1 :       0.1250    0.1250    0.1250
  band No.  band energies     occupation 
      1     -14.5091      1.00000
      2       0.4226      1.00000
      3       0.8594      1.00000
      4       0.8594      1.00000
      5       6.5798      0.00000
      6      12.8612      0.00000
      7      13.0623      0.00000
      8      13.0623      0.00000
      9      18.5656      0.00000
     10      18.5656      0.00000

 k-point   2 :       0.3750    0.1250    0.1250
  band No.  band energies     occupation 
      1     -14.3659      1.00000
      2      -0.9311      1.00000
      3       0.2729      1.00000
      4       0.6852      1.00000
      5       8.0957      0.00000
      6      12.0363      0.00000
      7      13.5164      0.00000
      8      14.0727      0.00000
      9      15.9948      0.00000
     10      19.6193      0.00000

 k-point   3 :      -0.3750    0.1250    0.1250
  band No.  band energies     occupation 
      1     -14.2760      1.00000
      2      -1.6709      1.00000
      3       0.3075      1.00000
      4       0.3403      1.00000
      5       9.2870      0.00000
      6      11.1708      0.00000
      7      13.2431      0.00000
      8      13.6904      0.00000
      9      18.0772      0.00000
     10      19.2249      0.00000

 k-point   4 :      -0.1250    0.1250    0.1250
  band No.  band energies     occupation 
      1     -14.4283      1.00000
      2      -0.2631      1.00000
      3       0.4901      1.00000
      4       0.6366      1.00000
      5       7.2438      0.00000
      6      12.8873      0.00000
      7      13.2068      0.00000
      8      13.8784      0.00000
      9      15.8140      0.00000
     10      20.3024      0.00000

 k-point   5 :       0.3750    0.3750    0.1250
  band No.  band energies     occupation 
      1     -14.3145      1.00000
      2      -0.7394      1.00000
      3       0.0078      1.00000
      4       0.1009      1.00000
      5       7.1555      0.00000
      6      13.1503      0.00000
      7      13.7131      0.00000
      8      14.8200      0.00000
      9      15.5984      0.00000
     10      22.3259      0.00000

 k-point   6 :      -0.3750    0.3750    0.1250
  band No.  band energies     occupation 
      1     -14.2266      1.00000
      2      -1.1021      1.00000
      3      -0.4196      1.00000
      4      -0.2382      1.00000
      5       7.8549      0.00000
      6      11.8190      0.00000
      7      14.5175      0.00000
      8      15.0320      0.00000
      9      17.8441      0.00000
     10      20.1008      0.00000

 k-point   7 :      -0.1250    0.3750    0.1250
  band No.  band energies     occupation 
      1     -14.2824      1.00000
      2      -1.2622      1.00000
      3      -0.0862      1.00000
      4       0.2970      1.00000
      5       8.3809      0.00000
      6      11.6182      0.00000
      7      13.9768      0.00000
      8      14.4319      0.00000
      9      16.6851      0.00000
     10      20.2158      0.00000

 k-point   8 :      -0.3750   -0.3750    0.1250
  band No.  band energies     occupation 
      1     -14.2345      1.00000
      2      -0.7784      1.00000
      3      -0.4405      1.00000
      4      -0.3091      1.00000
      5       6.4924      0.00000
      6      13.6882      0.00000
      7      14.2699      0.00000
      8      15.3781      0.00000
      9      16.7100      0.00000
     10      21.6646      0.00000

 k-point   9 :       0.3750    0.3750    0.3750
  band No.  band energies     occupation 
      1     -14.3260      1.00000
      2      -1.4845      1.00000
      3       0.5501      1.00000
      4       0.5501      1.00000
      5       8.8913      0.00000
      6      11.7851      0.00000
      7      13.1390      0.00000
      8      13.1390      0.00000
      9      18.2238      0.00000
     10      18.2238      0.00000

 k-point  10 :      -0.3750    0.3750    0.3750
  band No.  band energies     occupation 
      1     -14.2459      1.00000
      2      -1.4103      1.00000
      3      -0.2742      1.00000
      4       0.1821      1.00000
      5       8.6979      0.00000
      6      11.3103      0.00000
      7      13.9594      0.00000
      8      14.5781      0.00000
      9      18.3943      0.00000
     10      18.6511      0.00000

 spin component 2

 k-point   1 :       0.1250    0.1250    0.1250
  band No.  band energies     occupation 
      1     -14.5090      1.00000
      2       0.4227      1.00000
      3       0.8595      1.00000
      4       0.8595      1.00000
[...]
  PAW double counting   =       309.47773549     -300.54797182
  entropy T*S    EENTRO =         0.00000000
  eigenvalues    EBANDS =       -30.30050941
  atomic energy  EATOM  =       442.95818076
  ---------------------------------------------------
  free energy    TOTEN  =       -14.31337764 eV

  energy without entropy =      -14.31337764  energy(sigma->0) =      -14.31337764


--------------------------------------------------------------------------------------------------------




----------------------------------------- Iteration    3(   6)  ---------------------------------------


    POTLOK:  cpu time    0.24: real time    0.24
    SETDIJ:  cpu time    0.03: real time    0.03
    EDDIAG:  cpu time    0.23: real time    0.23
  RMM-DIIS:  cpu time    0.31: real time    0.31
    ORTHCH:  cpu time    0.00: real time    0.00
 BZINTS: Fermi energy:  0.858797;  8.000000 electrons
         Band energy: -30.295026;  BLOECHL correction:  0.000000
       DOS:  cpu time    0.00: real time    0.00
    --------------------------------------------
      LOOP:  cpu time    0.81: real time    0.81

 eigenvalue-minimisations  :     3
 total energy-change (2. order) : 0.5907629E-07  (-0.2097077E-08)
 number of electron       7.9999998 magnetization      -0.0000007
 augmentation part        0.6698698 magnetization      -0.0000006

 Free energy of the ion-electron system (eV)
  ---------------------------------------------------
  alpha Z        PSCENC =         9.15491002
  Ewald energy   TEWEN  =      -304.24871582
  -1/2 Hartree   DENC   =      -162.13510994
  -exchange  EXHF       =         0.00000000
  -V(xc)+E(xc)   XCENC  =        21.32266859
  PAW double counting   =       309.48518371     -300.55546905
  entropy T*S    EENTRO =         0.00000000
  eigenvalues    EBANDS =       -30.29502585
  atomic energy  EATOM  =       442.95818076
  ---------------------------------------------------
  free energy    TOTEN  =       -14.31337758 eV

  energy without entropy =      -14.31337758  energy(sigma->0) =      -14.31337758


--------------------------------------------------------------------------------------------------------




 average (electrostatic) potential at core
  the test charge radii are     0.9748  0.7215
  (the norm of the test charge is              1.0000)
       1 -26.2787       2 -26.2787       3 -71.4275
 
 
 
 E-fermi :   0.8588     XC(G=0):  -9.3135     alpha+bet :-14.8563


 spin component 1

 k-point   1 :       0.1250    0.1250    0.1250
  band No.  band energies     occupation 
      1     -14.5149      1.00000
      2       0.4159      1.00000
      3       0.8521      1.00000
      4       0.8521      1.00000
      5       6.5686      0.00000
      6      12.8513      0.00000
      7      13.0528      0.00000
      8      13.0528      0.00000
      9      18.5534      0.00000
     10      18.5534      0.00000

 k-point   2 :       0.3750    0.1250    0.1250
  band No.  band energies     occupation 
      1     -14.3719      1.00000
      2      -0.9361      1.00000
      3       0.2665      1.00000
      4       0.6783      1.00000
      5       8.0844      0.00000
      6      12.0254      0.00000
      7      13.5047      0.00000
      8      14.0629      0.00000
      9      15.9833      0.00000
     10      19.6045      0.00000

 k-point   3 :      -0.3750    0.1250    0.1250
  band No.  band energies     occupation 
      1     -14.2821      1.00000
      2      -1.6750      1.00000
      3       0.3010      1.00000
      4       0.3339      1.00000
      5       9.2768      0.00000
      6      11.1577      0.00000
      7      13.2332      0.00000
      8      13.6792      0.00000
      9      18.0627      0.00000
     10      19.2099      0.00000

 k-point   4 :      -0.1250    0.1250    0.1250
  band No.  band energies     occupation 
      1     -14.4342      1.00000
      2      -0.2690      1.00000
      3       0.4835      1.00000
      4       0.6297      1.00000
      5       7.2330      0.00000
      6      12.8763      0.00000
      7      13.1964      0.00000
      8      13.8681      0.00000
      9      15.8023      0.00000
     10      20.2888      0.00000

 k-point   5 :       0.3750    0.3750    0.1250
  band No.  band energies     occupation 
      1     -14.3205      1.00000
      2      -0.7448      1.00000
      3       0.0019      1.00000
      4       0.0946      1.00000
      5       7.1470      0.00000
      6      13.1377      0.00000
      7      13.7013      0.00000
      8      14.8065      0.00000
      9      15.5858      0.00000
     10      22.3081      0.00000

 k-point   6 :      -0.3750    0.3750    0.1250
  band No.  band energies     occupation 
      1     -14.2327      1.00000
      2      -1.1066      1.00000
      3      -0.4253      1.00000
      4      -0.2438      1.00000
      5       7.8468      0.00000
      6      11.8069      0.00000
      7      14.5034      0.00000
      8      15.0164      0.00000
      9      17.8302      0.00000
     10      20.0864      0.00000

 k-point   7 :      -0.1250    0.3750    0.1250
  band No.  band energies     occupation 
      1     -14.2884      1.00000
      2      -1.2668      1.00000
      3      -0.0922      1.00000
      4       0.2906      1.00000
      5       8.3713      0.00000
      6      11.6063      0.00000
      7      13.9642      0.00000
      8      14.4194      0.00000
      9      16.6726      0.00000
     10      20.2002      0.00000

 k-point   8 :      -0.3750   -0.3750    0.1250
  band No.  band energies     occupation 
      1     -14.2406      1.00000
      2      -0.7837      1.00000
      3      -0.4462      1.00000
      4      -0.3145      1.00000
      5       6.4857      0.00000
      6      13.6747      0.00000
      7      14.2568      0.00000
      8      15.3616      0.00000
      9      16.6960      0.00000
     10      21.6463      0.00000

 k-point   9 :       0.3750    0.3750    0.3750
  band No.  band energies     occupation 
      1     -14.3320      1.00000
      2      -1.4889      1.00000
      3       0.5433      1.00000
      4       0.5433      1.00000
      5       8.8796      0.00000
      6      11.7725      0.00000
      7      13.1298      0.00000
      8      13.1298      0.00000
      9      18.2099      0.00000
     10      18.2099      0.00000

 k-point  10 :      -0.3750    0.3750    0.3750
  band No.  band energies     occupation 
      1     -14.2520      1.00000
      2      -1.4145      1.00000
      3      -0.2801      1.00000
      4       0.1759      1.00000
      5       8.6891      0.00000
      6      11.2972      0.00000
      7      13.9482      0.00000
      8      14.5635      0.00000
      9      18.3813      0.00000
     10      18.6360      0.00000

 spin component 2

 k-point   1 :       0.1250    0.1250    0.1250
  band No.  band energies     occupation 
      1     -14.5149      1.00000
      2       0.4159      1.00000
      3       0.8521      1.00000
      4       0.8521      1.00000
      5       6.5685      0.00000
      6      12.8513      0.00000
      7      13.0528      0.00000
      8      13.0528      0.00000
      9      18.5534      0.00000
     10      18.5534      0.00000

 k-point   2 :       0.3750    0.1250    0.1250
  band No.  band energies     occupation 
      1     -14.3719      1.00000
      2      -0.9361      1.00000
      3       0.2665      1.00000
      4       0.6783      1.00000
      5       8.0844      0.00000
      6      12.0254      0.00000
      7      13.5047      0.00000
      8      14.0629      0.00000
      9      15.9834      0.00000
     10      19.6045      0.00000

 k-point   3 :      -0.3750    0.1250    0.1250
  band No.  band energies     occupation 
      1     -14.2821      1.00000
      2      -1.6750      1.00000
      3       0.3010      1.00000
      4       0.3339      1.00000
      5       9.2768      0.00000
      6      11.1577      0.00000
      7      13.2332      0.00000
      8      13.6792      0.00000
      9      18.0627      0.00000
     10      19.2099      0.00000

 k-point   4 :      -0.1250    0.1250    0.1250
  band No.  band energies     occupation 
      1     -14.4342      1.00000
      2      -0.2690      1.00000
      3       0.4835      1.00000
      4       0.6297      1.00000
      5       7.2330      0.00000
      6      12.8763      0.00000
      7      13.1964      0.00000
      8      13.8681      0.00000
      9      15.8023      0.00000
     10      20.2889      0.00000

 k-point   5 :       0.3750    0.3750    0.1250
  band No.  band energies     occupation 
      1     -14.3205      1.00000
      2      -0.7448      1.00000
      3       0.0019      1.00000
      4       0.0946      1.00000
      5       7.1470      0.00000
      6      13.1377      0.00000
      7      13.7013      0.00000
      8      14.8065      0.00000
      9      15.5858      0.00000
     10      22.3083      0.00000

 k-point   6 :      -0.3750    0.3750    0.1250
  band No.  band energies     occupation 
      1     -14.2327      1.00000
      2      -1.1066      1.00000
      3      -0.4253      1.00000
      4      -0.2438      1.00000
      5       7.8468      0.00000
      6      11.8069      0.00000
      7      14.5034      0.00000
      8      15.0164      0.00000
      9      17.8302      0.00000
     10      20.0864      0.00000

 k-point   7 :      -0.1250    0.3750    0.1250
  band No.  band energies     occupation 
      1     -14.2884      1.00000
      2      -1.2668      1.00000
      3      -0.0922      1.00000
      4       0.2906      1.00000
      5       8.3713      0.00000
      6      11.6063      0.00000
      7      13.9642      0.00000
      8      14.4194      0.00000
      9      16.6726      0.00000
     10      20.2002      0.00000

 k-point   8 :      -0.3750   -0.3750    0.1250
  band No.  band energies     occupation 
      1     -14.2406      1.00000
      2      -0.7837      1.00000
      3      -0.4462      1.00000
      4      -0.3145      1.00000
      5       6.4857      0.00000
      6      13.6747      0.00000
      7      14.2568      0.00000
      8      15.3616      0.00000
      9      16.6960      0.00000
     10      21.6463      0.00000

 k-point   9 :       0.3750    0.3750    0.3750
  band No.  band energies     occupation 
      1     -14.3320      1.00000
      2      -1.4889      1.00000
      3       0.5433      1.00000
      4       0.5433      1.00000
      5       8.8796      0.00000
      6      11.7725      0.00000
      7      13.1298      0.00000
      8      13.1298      0.00000
      9      18.2099      0.00000
     10      18.2099      0.00000

 k-point  10 :      -0.3750    0.3750    0.3750
  band No.  band energies     occupation 
      1     -14.2520      1.00000
      2      -1.4145      1.00000
      3      -0.2801      1.00000
      4       0.1759      1.00000
      5       8.6890      0.00000
      6      11.2972      0.00000
      7      13.9482      0.00000
      8      14.5635      0.00000
      9      18.3813      0.00000
     10      18.6360      0.00000


--------------------------------------------------------------------------------------------------------


 soft charge-density along one line, spin component           1
         0         1         2         3         4         5         6         7         8         9
 total charge-density along one line
 
 soft charge-density along one line, spin component           2
         0         1         2         3         4         5         6         7         8         9
 total charge-density along one line
 
 pseudopotential strength for first ion, spin component:           1
  1.184  -0.044   0.000   0.000   0.000
 -0.044  -0.053  -0.000  -0.000  -0.000
  0.000  -0.000  -0.314  -0.000  -0.000
  0.000  -0.000  -0.000  -0.314  -0.000
  0.000  -0.000  -0.000  -0.000  -0.314
 pseudopotential strength for first ion, spin component:           2
  1.184  -0.044   0.000   0.000   0.000
 -0.044  -0.053  -0.000  -0.000  -0.000
  0.000  -0.000  -0.314  -0.000  -0.000
  0.000  -0.000  -0.000  -0.314  -0.000
  0.000  -0.000  -0.000  -0.000  -0.314
 total augmentation occupancy for first ion, spin component:           1
  1.033  -0.123   0.000   0.000  -0.000
 -0.123   0.016   0.000   0.000  -0.000
  0.000   0.000   0.123   0.000   0.000
  0.000   0.000  -0.000   0.123  -0.000
  0.000   0.000   0.000  -0.000   0.123
 total augmentation occupancy for first ion, spin component:           2
  0.000   0.000   0.000   0.000   0.000
  0.000  -0.000   0.000   0.000   0.000
  0.000   0.000   0.000   0.000   0.000
  0.000   0.000   0.000   0.000   0.000
  0.000   0.000   0.000   0.000   0.000


------------------------ aborting loop because EDIFF is reached ----------------------------------------


 


 total charge     
 
# of ion     s       p       d       tot
----------------------------------------
  1        0.129   0.266   0.000   0.394
  2        0.129   0.266   0.000   0.394
  3        1.535   3.496   0.000   5.031
------------------------------------------------
tot        1.792   4.028   0.000   5.820
 


 magnetization (x)
 
# of ion     s       p       d       tot
----------------------------------------
  1       -0.000   0.000   0.000  -0.000
  2       -0.000   0.000   0.000  -0.000
  3        0.000  -0.000   0.000   0.000
------------------------------------------------
tot       -0.000   0.000   0.000  -0.000
 
    CHARGE:  cpu time    0.07: real time    0.07
    FORLOC:  cpu time    0.01: real time    0.01
    FORNL :  cpu time    0.49: real time    0.49
    STRESS:  cpu time    1.51: real time    1.51
    FORCOR:  cpu time    0.23: real time    0.24
    FORHAR:  cpu time    0.03: real time    0.03
    MIXING:  cpu time    0.01: real time    0.01
    FORVDW:  cpu time    0.00: real time    0.00

  FORCE on cell =-STRESS in cart. coord.  units (eV):
  Direction    XX          YY          ZZ          XY          YZ          ZX
  --------------------------------------------------------------------------------------
  Alpha Z     9.15491     9.15491     9.15491
  Ewald    -101.41627  -101.41627  -101.41627     0.00000    -0.00000     0.00000
  Hartree    54.04328    54.04328    54.04328     0.00000     0.00000     0.00000
  E(xc)     -35.24722   -35.24722   -35.24722    -0.00000    -0.00000    -0.00000
  Local     -52.38569   -52.38569   -52.38569     0.00003     0.00003     0.00003
  n-local   -20.26441   -21.45797   -21.15610     0.37907    -0.04043    -0.33123
  augment     6.89798     6.89798     6.89798    -0.00002    -0.00002    -0.00002
  Kinetic   140.58196   138.97998   140.26497    -2.42442     0.23662     2.14675
  Fock        0.00000     0.00000     0.00000     0.00000     0.00000     0.00000
  -------------------------------------------------------------------------------------
  Total       0.02981     0.02981     0.02981     0.00000     0.00000     0.00000
  in kB       1.92477     1.92477     1.92477     0.00000     0.00000     0.00000
  external pressure =        1.92 kB  Pullay stress =        0.00 kB


 VOLUME and BASIS-vectors are now :
 -----------------------------------------------------------------------------
  energy-cutoff  :      520.00
  volume of cell :       24.81
      direct lattice vectors                 reciprocal lattice vectors
     2.314987822  2.314987822 -0.000000000     0.215983858  0.215983858 -0.215983858
     0.000000000  2.314987822  2.314987822    -0.215983858  0.215983858  0.215983858
     2.314987822  0.000000000  2.314987822     0.215983858 -0.215983858  0.215983858

  length of vectors
     3.273887174  3.273887174  3.273887174     0.374095015  0.374095015  0.374095015


 FORCES acting on ions
    electron-ion (+dipol)            ewald-force                    non-local-force                 convergence-correction
 -----------------------------------------------------------------------------------------------
   0.673E-06 0.646E-06 0.673E-06   0.304E-15 -.609E-15 0.614E-15   -.243E-16 -.111E-16 -.173E-16   0.133E-10 0.133E-10 0.133E-10
   -.673E-06 -.646E-06 -.673E-06   0.457E-16 0.943E-15 -.731E-15   -.347E-17 -.434E-17 0.104E-16   -.133E-10 -.133E-10 -.133E-10
   -.772E-15 -.190E-14 -.173E-14   -.107E-15 -.916E-15 0.372E-16   0.000E+00 -.182E-25 0.000E+00   0.872E-15 0.648E-15 -.243E-14
 -----------------------------------------------------------------------------------------------
   0.108E-13 0.141E-13 -.206E-12   0.242E-15 -.582E-15 -.802E-16   -.278E-16 -.154E-16 -.694E-17   0.878E-15 0.648E-15 -.243E-14
 
 
 POSITION                                       TOTAL-FORCE (eV/Angst)
 -----------------------------------------------------------------------------------
      3.47248      3.47248      3.47248         0.000000      0.000000      0.000000
      1.15749      1.15749      1.15749        -0.000000     -0.000000     -0.000000
     -0.00000     -0.00000     -0.00000         0.000000      0.000000     -0.000000
 -----------------------------------------------------------------------------------
    total drift:                                0.000000      0.000000     -0.000000


--------------------------------------------------------------------------------------------------------



  FREE ENERGIE OF THE ION-ELECTRON SYSTEM (eV)
  ---------------------------------------------------
  free  energy   TOTEN  =       -14.31337758 eV

  energy  without entropy=      -14.31337758  energy(sigma->0) =      -14.31337758
 
 d Force = 0.0000000E+00[ 0.000E+00, 0.000E+00]  d Energy = 0.3030575E-04-0.303E-04
 d Force = 0.0000000E+00[ 0.000E+00, 0.000E+00]  d Ewald  =-0.8958288E-01 0.896E-01


--------------------------------------------------------------------------------------------------------


    POTLOK:  cpu time    0.26: real time    0.26


--------------------------------------------------------------------------------------------------------




--------------------------------------------------------------------------------------------------------


  
 reached required accuracy - stopping structural energy minimisation
     LOOP+:  cpu time    8.53: real time    8.59
    4ORBIT:  cpu time    0.00: real time    0.01
 


 total charge     
 
# of ion     s       p       d       tot
----------------------------------------
  1        0.129   0.266   0.000   0.394
  2        0.129   0.266   0.000   0.394
  3        1.535   3.496   0.000   5.031
------------------------------------------------
tot        1.792   4.028   0.000   5.820
 


 magnetization (x)
 
# of ion     s       p       d       tot
----------------------------------------
  1       -0.000   0.000   0.000  -0.000
  2       -0.000   0.000   0.000  -0.000
  3        0.000  -0.000   0.000   0.000
------------------------------------------------
tot       -0.000   0.000   0.000  -0.000
 
 BZINTS: Fermi energy:  0.858797;  8.000000 electrons
         Band energy: -30.295026;  BLOECHL correction:  0.000000

 total amount of memory used by VASP on root node    47082. kBytes
========================================================================

   base      :      30000. kBytes
   nonlr-proj:        690. kBytes
   fftplans  :       3916. kBytes
   grid      :      10266. kBytes
   one-center:         18. kBytes
   wavefun   :       2192. kBytes
 
  
  
 General timing and accounting informations for this job:
 ========================================================
  
                  Total CPU time used (sec):       35.386
                            User time (sec):       34.943
                          System time (sec):        0.443
                         Elapsed time (sec):       36.414
  
                   Maximum memory used (kb):       52476.
                   Average memory used (kb):           0.
  
                          Minor page faults:        62506
                          Major page faults:           57
                 Voluntary context switches:           69
