Automatically generated mesh
       6
Reciprocal lattice
    0.08333333333333    0.12500000000000    0.25000000000000             8
    0.25000000000000    0.12500000000000    0.25000000000000             8
    0.41666666666667    0.12500000000000    0.25000000000000             8
    0.08333333333333    0.37500000000000    0.25000000000000             8
    0.25000000000000    0.37500000000000    0.25000000000000             8
    0.41666666666667    0.37500000000000    0.25000000000000             8
Tetrahedra
        46    0.00347222222222
         4         1         1         2         5
         4         1         1         4         5
         4         1         4         4         5
         4         1         2         2         5
         4         1         2         5         5
         4         1         4         5         5
         4         2         2         3         6
         4         2         2         5         6
         4         2         5         5         6
         4         2         3         3         6
         4         2         3         6         6
         4         2         5         6         6
         8         3         3         3         6
         8         3         3         6         6
         8         3         6         6         6
         4         2         3         3         5
         4         3         3         5         6
         4         3         5         6         6
         4         2         2         3         5
         4         2         3         5         5
         4         3         5         5         6
         4         1         2         2         4
         4         2         2         4         5
         4         2         4         5         5
         4         1         1         2         4
         4         1         2         4         4
         4         2         4         4         5
         8         1         1         1         4
         8         1         1         4         4
         8         1         4         4         4
         8         4         4         5         5
         8         4         4         4         5
         8         4         5         5         5
         8         5         5         6         6
         8         5         5         5         6
         8         5         6         6         6
        12         6         6         6         6
        12         4         4         4         4
         8         1         1         2         2
         8         1         1         1         2
         8         1         2         2         2
         8         2         2         3         3
         8         2         2         2         3
         8         2         3         3         3
        12         3         3         3         3
        12         1         1         1         1
