<?xml version="1.0" encoding="ISO-8859-1"?>
<modeling>
 <generator>
  <i name="program" type="string">vasp </i>
  <i name="version" type="string">5.2.11  </i>
  <i name="subversion" type="string">01Dec10 complex  parallel </i>
  <i name="platform" type="string">unknown </i>
  <i name="date" type="string">2011 08 11 </i>
  <i name="time" type="string">13:18:23 </i>
 </generator>
 <incar>
  <i type="string" name="SYSTEM"> RubyVaspy :: O Si</i>
  <i type="string" name="PREC">accurate</i>
  <i type="string" name="ALGO"> FAST</i>
  <i type="int" name="ISPIN">     2</i>
  <i type="int" name="ICHARG">     1</i>
  <i type="int" name="NELM">   100</i>
  <i type="int" name="NELMIN">     3</i>
  <i type="int" name="IBRION">     2</i>
  <i name="EDIFF">      0.00000200</i>
  <i type="int" name="NSW">   200</i>
  <i type="int" name="ISIF">     3</i>
  <i name="ENCUT">    520.00000000</i>
  <v name="MAGMOM">      0.60000000      0.60000000      0.60000000      0.60000000      0.60000000      0.60000000      0.60000000      0.60000000      0.60000000      0.60000000      0.60000000      0.60000000      0.60000000      0.60000000      0.60000000      0.60000000      0.60000000      0.60000000      0.60000000      0.60000000
      0.60000000      0.60000000      0.60000000      0.60000000      0.60000000      0.60000000      0.60000000      0.60000000      0.60000000      0.60000000      0.60000000      0.60000000      0.60000000      0.60000000      0.60000000      0.60000000      0.60000000      0.60000000      0.60000000      0.60000000
      0.60000000      0.60000000      0.60000000      0.60000000      0.60000000      0.60000000      0.60000000      0.60000000      0.60000000      0.60000000      0.60000000      0.60000000      0.60000000      0.60000000      0.60000000      0.60000000      0.60000000      0.60000000      0.60000000      0.60000000
      0.60000000      0.60000000      0.60000000      0.60000000      0.60000000      0.60000000      0.60000000      0.60000000      0.60000000      0.60000000      0.60000000      0.60000000</v>
  <i type="string" name="LREAL"> AUTO</i>
  <i type="int" name="ISMEAR">    -5</i>
  <i name="SIGMA">      0.05000000</i>
  <i type="logical" name="LWAVE"> T  </i>
  <i type="int" name="NELM">   100</i>
  <i type="logical" name="LPEAD"> F  </i>
  <i type="logical" name="LCALCPOL"> F  </i>
  <i type="logical" name="LCALCEPS"> F  </i>
  <v name="EFIELD_PEAD">      0.00000000      0.00000000      0.00000000</v>
  <i type="logical" name="LEFG"> F  </i>
  <i type="logical" name="LRHFATM"> F  </i>
  <i type="string" name="METAGGA">--</i>
  <i type="int" name="LMAXTAU">     0</i>
 </incar>
 <kpoints>
  <generation param="Monkhorst-Pack">
   <v type="int" name="divisions">       6        4        2 </v>
   <v name="usershift">      0.00000000       0.00000000       0.00000000 </v>
   <v name="genvec1">      0.16666667       0.00000000       0.00000000 </v>
   <v name="genvec2">      0.00000000       0.25000000       0.00000000 </v>
   <v name="genvec3">      0.00000000       0.00000000       0.50000000 </v>
   <v name="shift">      0.50000000       0.50000000       0.50000000 </v>
  </generation>
  <varray name="kpointlist" >
   <v>       0.08333333       0.12500000       0.25000000 </v>
   <v>       0.25000000       0.12500000       0.25000000 </v>
   <v>       0.41666667       0.12500000       0.25000000 </v>
   <v>       0.08333333       0.37500000       0.25000000 </v>
   <v>       0.25000000       0.37500000       0.25000000 </v>
   <v>       0.41666667       0.37500000       0.25000000 </v>
  </varray>
  <varray name="weights" >
   <v>       0.16666667 </v>
   <v>       0.16666667 </v>
   <v>       0.16666667 </v>
   <v>       0.16666667 </v>
   <v>       0.16666667 </v>
   <v>       0.16666667 </v>
  </varray>
  <varray name="tetrahedronlist"  type="int" >
   <v type="int" >        4        1        1        2        5 </v>
   <v type="int" >        4        1        1        4        5 </v>
   <v type="int" >        4        1        4        4        5 </v>
   <v type="int" >        4        1        2        2        5 </v>
   <v type="int" >        4        1        2        5        5 </v>
   <v type="int" >        4        1        4        5        5 </v>
   <v type="int" >        4        2        2        3        6 </v>
   <v type="int" >        4        2        2        5        6 </v>
   <v type="int" >        4        2        5        5        6 </v>
   <v type="int" >        4        2        3        3        6 </v>
   <v type="int" >        4        2        3        6        6 </v>
   <v type="int" >        4        2        5        6        6 </v>
   <v type="int" >        8        3        3        3        6 </v>
   <v type="int" >        8        3        3        6        6 </v>
   <v type="int" >        8        3        6        6        6 </v>
   <v type="int" >        4        2        3        3        5 </v>
   <v type="int" >        4        3        3        5        6 </v>
   <v type="int" >        4        3        5        6        6 </v>
   <v type="int" >        4        2        2        3        5 </v>
   <v type="int" >        4        2        3        5        5 </v>
   <v type="int" >        4        3        5        5        6 </v>
   <v type="int" >        4        1        2        2        4 </v>
   <v type="int" >        4        2        2        4        5 </v>
   <v type="int" >        4        2        4        5        5 </v>
   <v type="int" >        4        1        1        2        4 </v>
   <v type="int" >        4        1        2        4        4 </v>
   <v type="int" >        4        2        4        4        5 </v>
   <v type="int" >        8        1        1        1        4 </v>
   <v type="int" >        8        1        1        4        4 </v>
   <v type="int" >        8        1        4        4        4 </v>
   <v type="int" >        8        4        4        5        5 </v>
   <v type="int" >        8        4        4        4        5 </v>
   <v type="int" >        8        4        5        5        5 </v>
   <v type="int" >        8        5        5        6        6 </v>
   <v type="int" >        8        5        5        5        6 </v>
   <v type="int" >        8        5        6        6        6 </v>
   <v type="int" >       12        6        6        6        6 </v>
   <v type="int" >       12        4        4        4        4 </v>
   <v type="int" >        8        1        1        2        2 </v>
   <v type="int" >        8        1        1        1        2 </v>
   <v type="int" >        8        1        2        2        2 </v>
   <v type="int" >        8        2        2        3        3 </v>
   <v type="int" >        8        2        2        2        3 </v>
   <v type="int" >        8        2        3        3        3 </v>
   <v type="int" >       12        3        3        3        3 </v>
   <v type="int" >       12        1        1        1        1 </v>
  </varray>
  <i name="volumeweight">      0.00347222 </i>
 </kpoints>
 <parameters>
  <separator name="general" >
   <i type="string" name="SYSTEM">RubyVaspy :: O Si</i>
   <i type="logical" name="LCOMPAT"> F  </i>
  </separator>
  <separator name="electronic" >
   <i type="string" name="PREC">accura</i>
   <i name="ENMAX">    520.00000000</i>
   <i name="ENAUG">    605.39200000</i>
   <i name="EDIFF">      0.00000200</i>
   <i type="int" name="IALGO">    68</i>
   <i type="int" name="IWAVPR">    11</i>
   <i type="int" name="NBANDS">   252</i>
   <i name="NELECT">    384.00000000</i>
   <i type="int" name="TURBO">     0</i>
   <i type="int" name="IRESTART">     0</i>
   <i type="int" name="NREBOOT">     0</i>
   <i type="int" name="NMIN">     0</i>
   <i name="EREF">      0.00000000</i>
   <separator name="electronic smearing" >
    <i type="int" name="ISMEAR">    -5</i>
    <i name="SIGMA">      0.05000000</i>
    <i name="KSPACING">      0.50000000</i>
    <i type="logical" name="KGAMMA"> T  </i>
   </separator>
   <separator name="electronic projectors" >
    <i type="logical" name="LREAL"> T  </i>
    <v name="ROPT">     -0.00025000     -0.00025000</v>
    <i type="int" name="LMAXPAW">  -100</i>
    <i type="int" name="LMAXMIX">     2</i>
   </separator>
   <separator name="electronic startup" >
    <i type="int" name="ISTART">     0</i>
    <i type="int" name="ICHARG">     1</i>
    <i type="int" name="INIWAV">     1</i>
   </separator>
   <separator name="electronic spin" >
    <i type="int" name="ISPIN">     2</i>
    <i type="logical" name="LNONCOLLINEAR"> F  </i>
    <v name="MAGMOM">      0.60000000      0.60000000      0.60000000      0.60000000      0.60000000      0.60000000      0.60000000      0.60000000      0.60000000      0.60000000      0.60000000      0.60000000      0.60000000      0.60000000      0.60000000      0.60000000      0.60000000      0.60000000      0.60000000      0.60000000
      0.60000000      0.60000000      0.60000000      0.60000000      0.60000000      0.60000000      0.60000000      0.60000000      0.60000000      0.60000000      0.60000000      0.60000000      0.60000000      0.60000000      0.60000000      0.60000000      0.60000000      0.60000000      0.60000000      0.60000000
      0.60000000      0.60000000      0.60000000      0.60000000      0.60000000      0.60000000      0.60000000      0.60000000      0.60000000      0.60000000      0.60000000      0.60000000      0.60000000      0.60000000      0.60000000      0.60000000      0.60000000      0.60000000      0.60000000      0.60000000
      0.60000000      0.60000000      0.60000000      0.60000000      0.60000000      0.60000000      0.60000000      0.60000000      0.60000000      0.60000000      0.60000000      0.60000000</v>
    <i name="NUPDOWN">     -1.00000000</i>
    <i type="logical" name="LSORBIT"> F  </i>
    <v name="SAXIS">      0.00000000      0.00000000      1.00000000</v>
    <i type="logical" name="LSPIRAL"> F  </i>
    <v name="QSPIRAL">      0.00000000      0.00000000      0.00000000</v>
    <i type="logical" name="LZEROZ"> F  </i>
   </separator>
   <separator name="electronic exchange-correlation" >
    <i type="logical" name="LASPH"> F  </i>
    <i type="logical" name="LMETAGGA"> F  </i>
   </separator>
   <separator name="electronic convergence" >
    <i type="int" name="NELM">   100</i>
    <i type="int" name="NELMDL">    -5</i>
    <i type="int" name="NELMIN">     3</i>
    <i name="ENINI">    520.00000000</i>
    <separator name="electronic convergence detail" >
     <i type="logical" name="LDIAG"> T  </i>
     <i type="logical" name="LSUBROT"> T  </i>
     <i name="WEIMIN">      0.00100000</i>
     <i name="EBREAK">      0.00000000</i>
     <i name="DEPER">      0.30000000</i>
     <i type="int" name="NRMM">     4</i>
     <i name="TIME">      0.40000000</i>
    </separator>
   </separator>
   <separator name="electronic mixer" >
    <i name="AMIX">      0.40000000</i>
    <i name="BMIX">      1.00000000</i>
    <i name="AMIN">      0.10000000</i>
    <i name="AMIX_MAG">      1.60000000</i>
    <i name="BMIX_MAG">      1.00000000</i>
    <separator name="electronic mixer details" >
     <i type="int" name="IMIX">     4</i>
     <i type="int" name="MAXMIX">   -45</i>
     <i name="WC">    100.00000000</i>
     <i type="int" name="INIMIX">     1</i>
     <i type="int" name="MIXPRE">     1</i>
     <i type="int" name="MREMOVE">     5</i>
    </separator>
   </separator>
   <separator name="electronic dipolcorrection" >
    <i type="logical" name="LDIPOL"> F  </i>
    <i type="logical" name="LMONO"> F  </i>
    <i type="int" name="IDIPOL">     0</i>
    <i name="EPSILON">      1.00000000</i>
    <v name="DIPOL">   -100.00000000   -100.00000000   -100.00000000</v>
    <i name="EFIELD">      0.00000000</i>
   </separator>
  </separator>
  <separator name="grids" >
   <i type="int" name="NGX">    40</i>
   <i type="int" name="NGY">    64</i>
   <i type="int" name="NGZ">   196</i>
   <i type="int" name="NGXF">    80</i>
   <i type="int" name="NGYF">   128</i>
   <i type="int" name="NGZF">   392</i>
   <i type="logical" name="ADDGRID"> F  </i>
  </separator>
  <separator name="ionic" >
   <i type="int" name="NSW">   200</i>
   <i type="int" name="IBRION">     2</i>
   <i type="int" name="ISIF">     3</i>
   <i name="PSTRESS">      0.00000000</i>
   <i name="EDIFFG">      0.00002000</i>
   <i type="int" name="NFREE">     1</i>
   <i name="POTIM">      0.50000000</i>
   <i name="SMASS">     -3.00000000</i>
  </separator>
  <separator name="ionic md" >
   <i name="TEBEG">      0.00010000</i>
   <i name="TEEND">      0.00010000</i>
   <i type="int" name="NBLOCK">     1</i>
   <i type="int" name="KBLOCK">   200</i>
   <i type="int" name="NPACO">   256</i>
   <i name="APACO">     16.00000000</i>
  </separator>
  <separator name="symmetry" >
   <i type="int" name="ISYM">     2</i>
   <i name="SYMPREC">      0.00001000</i>
  </separator>
  <separator name="dos" >
   <i type="logical" name="LORBIT"> F  </i>
   <v name="RWIGS">     -1.00000000     -1.00000000</v>
   <i type="int" name="NEDOS">   301</i>
   <i name="EMIN">     10.00000000</i>
   <i name="EMAX">    -10.00000000</i>
   <i name="EFERMI">      0.00000000</i>
  </separator>
  <separator name="writing" >
   <i type="int" name="NWRITE">     2</i>
   <i type="logical" name="LWAVE"> T  </i>
   <i type="logical" name="LCHARG"> T  </i>
   <i type="logical" name="LPARD"> F  </i>
   <i type="logical" name="LVTOT"> F  </i>
   <i type="logical" name="LVHAR"> F  </i>
   <i type="logical" name="LELF"> F  </i>
   <i type="logical" name="LOPTICS"> F  </i>
   <v name="STM">      0.00000000      0.00000000      0.00000000      0.00000000      0.00000000</v>
  </separator>
  <separator name="performance" >
   <i type="int" name="NPAR">     1</i>
   <i type="int" name="NSIM">     4</i>
   <i type="int" name="NBLK">    -1</i>
   <i type="logical" name="LPLANE"> T  </i>
   <i type="logical" name="LSCALAPACK"> T  </i>
   <i type="logical" name="LSCAAWARE"> F  </i>
   <i type="logical" name="LSCALU"> F  </i>
   <i type="logical" name="LASYNC"> F  </i>
   <i type="logical" name="LORBITALREAL"> F  </i>
  </separator>
  <separator name="miscellaneous" >
   <i type="int" name="IDIOT">     3</i>
   <i type="logical" name="LMUSIC"> F  </i>
   <v name="POMASS">     16.00000000     28.08500000</v>
   <v name="DARWINR">      0.00000000      0.00000000</v>
   <v name="DARWINV">      1.00000000      1.00000000</v>
   <i type="logical" name="LCORR"> T  </i>
  </separator>
  <i type="logical" name="GGA_COMPAT"> T  </i>
  <i type="logical" name="LBERRY"> F  </i>
  <i type="int" name="ICORELEVEL">     0</i>
  <i type="logical" name="LDAU"> F  </i>
  <i type="int" name="I_CONSTRAINED_M">     0</i>
  <separator name="electronic exchange-correlation" >
   <i type="string" name="GGA">--</i>
   <i type="int" name="VOSKOWN">     0</i>
   <i type="logical" name="LHFCALC"> F  </i>
   <i type="string" name="PRECFOCK"></i>
   <i type="logical" name="LHFONE"> F  </i>
   <i type="logical" name="LRHFCALC"> F  </i>
   <i type="logical" name="LTHOMAS"> F  </i>
   <i type="logical" name="LMODELHF"> F  </i>
   <i name="ENCUT4O">     -1.00000000</i>
   <i type="int" name="EXXOEP">     0</i>
   <i type="int" name="FOURORBIT">     0</i>
   <i name="AEXX">      0.00000000</i>
   <i name="HFALPHA">      0.00000000</i>
   <i name="ALDAX">      1.00000000</i>
   <i name="AGGAX">      1.00000000</i>
   <i name="ALDAC">      1.00000000</i>
   <i name="AGGAC">      1.00000000</i>
   <i type="int" name="NKREDX">     1</i>
   <i type="int" name="NKREDY">     1</i>
   <i type="int" name="NKREDZ">     1</i>
   <i type="logical" name="SHIFTRED"> F  </i>
   <i type="logical" name="ODDONLY"> F  </i>
   <i type="logical" name="EVENONLY"> F  </i>
   <i type="int" name="LMAXFOCK">     0</i>
   <i type="int" name="NMAXFOCKAE">     0</i>
   <i type="logical" name="LFOCKAEDFT"> F  </i>
   <i name="HFSCREEN">      0.00000000</i>
   <i name="HFSCREENC">      0.00000000</i>
  </separator>
  <separator name="model GW" >
   <i type="int" name="MODEL_GW">     0</i>
   <i name="MODEL_EPS0">      8.91469624</i>
   <i name="MODEL_ALPHA">      1.00000000</i>
  </separator>
  <separator name="linear response parameters" >
   <i type="logical" name="LEPSILON"> F  </i>
   <i type="logical" name="LRPA"> F  </i>
   <i type="logical" name="LNABLA"> F  </i>
   <i type="logical" name="LVEL"> F  </i>
   <i type="int" name="KINTER">     0</i>
   <i name="CSHIFT">      0.10000000</i>
   <i name="OMEGAMAX">     -1.00000000</i>
  </separator>
  <separator name="orbital magnetization" >
   <i type="logical" name="ORBITALMAG"> F  </i>
   <i type="logical" name="LMAGBLOCH"> F  </i>
   <i type="logical" name="LCHIMAG"> F  </i>
   <i type="logical" name="LGAUGE"> T  </i>
   <i type="int" name="MAGATOM">     0</i>
   <v name="MAGDIPOL">      0.00000000      0.00000000      0.00000000</v>
   <v name="AVECCONST">      0.00000000      0.00000000      0.00000000</v>
  </separator>
  <separator name="response functions" >
   <i type="logical" name="LRPA"> T  </i>
   <i type="logical" name="LTCTE"> F  </i>
   <i type="logical" name="LTETE"> F  </i>
   <i type="logical" name="L2ORDER"> F  </i>
   <i type="logical" name="LUSEW"> F  </i>
   <i name="ENCUTGW">     -2.00000000</i>
   <i name="ENCUTGWSOFT">     -2.00000000</i>
   <i name="ENCUTLF">     -1.00000000</i>
   <i type="int" name="LMAXMP2">    -1</i>
   <i name="SCISSOR">      0.00000000</i>
   <i type="int" name="NOMEGA">     0</i>
   <i type="int" name="NOMEGAR">     0</i>
   <i type="int" name="NBANDSGW">    -1</i>
   <i type="int" name="NBANDSO">    -1</i>
   <i type="int" name="NBANDSV">    -1</i>
   <i type="int" name="NELM">   100</i>
   <i type="int" name="DIM">     3</i>
   <i type="int" name="ANTIRES">     0</i>
   <i name="OMEGAMAX">    -30.00000000</i>
   <i name="OMEGATL">   -200.00000000</i>
   <i type="int" name="OMEGAGRID">     0</i>
   <i name="CSHIFT">     -0.10000000</i>
   <i type="logical" name="SELFENERGY"> F  </i>
   <i type="logical" name="LSPECTRAL"> F  </i>
   <i type="logical" name="ODDONLYGW"> F  </i>
   <i type="logical" name="EVENONLYGW"> F  </i>
   <i type="int" name="NKREDLFX">     1</i>
   <i type="int" name="NKREDLFY">     1</i>
   <i type="int" name="NKREDLFZ">     1</i>
   <i type="int" name="MAXMEM">  1800</i>
   <i type="int" name="TELESCOPE">     0</i>
  </separator>
 </parameters>
 <atominfo>
  <atoms>      72 </atoms>
  <types>       2 </types>
  <array name="atoms" >
   <dimension dim="1">ion</dimension>
   <field type="string">element</field>
   <field type="int">atomtype</field>
   <set>
    <rc><c>O </c><c>   1</c></rc>
    <rc><c>O </c><c>   1</c></rc>
    <rc><c>O </c><c>   1</c></rc>
    <rc><c>O </c><c>   1</c></rc>
    <rc><c>O </c><c>   1</c></rc>
    <rc><c>O </c><c>   1</c></rc>
    <rc><c>O </c><c>   1</c></rc>
    <rc><c>O </c><c>   1</c></rc>
    <rc><c>O </c><c>   1</c></rc>
    <rc><c>O </c><c>   1</c></rc>
    <rc><c>O </c><c>   1</c></rc>
    <rc><c>O </c><c>   1</c></rc>
    <rc><c>O </c><c>   1</c></rc>
    <rc><c>O </c><c>   1</c></rc>
    <rc><c>O </c><c>   1</c></rc>
    <rc><c>O </c><c>   1</c></rc>
    <rc><c>O </c><c>   1</c></rc>
    <rc><c>O </c><c>   1</c></rc>
    <rc><c>O </c><c>   1</c></rc>
    <rc><c>O </c><c>   1</c></rc>
    <rc><c>O </c><c>   1</c></rc>
    <rc><c>O </c><c>   1</c></rc>
    <rc><c>O </c><c>   1</c></rc>
    <rc><c>O </c><c>   1</c></rc>
    <rc><c>O </c><c>   1</c></rc>
    <rc><c>O </c><c>   1</c></rc>
    <rc><c>O </c><c>   1</c></rc>
    <rc><c>O </c><c>   1</c></rc>
    <rc><c>O </c><c>   1</c></rc>
    <rc><c>O </c><c>   1</c></rc>
    <rc><c>O </c><c>   1</c></rc>
    <rc><c>O </c><c>   1</c></rc>
    <rc><c>O </c><c>   1</c></rc>
    <rc><c>O </c><c>   1</c></rc>
    <rc><c>O </c><c>   1</c></rc>
    <rc><c>O </c><c>   1</c></rc>
    <rc><c>O </c><c>   1</c></rc>
    <rc><c>O </c><c>   1</c></rc>
    <rc><c>O </c><c>   1</c></rc>
    <rc><c>O </c><c>   1</c></rc>
    <rc><c>O </c><c>   1</c></rc>
    <rc><c>O </c><c>   1</c></rc>
    <rc><c>O </c><c>   1</c></rc>
    <rc><c>O </c><c>   1</c></rc>
    <rc><c>O </c><c>   1</c></rc>
    <rc><c>O </c><c>   1</c></rc>
    <rc><c>O </c><c>   1</c></rc>
    <rc><c>O </c><c>   1</c></rc>
    <rc><c>Si</c><c>   2</c></rc>
    <rc><c>Si</c><c>   2</c></rc>
    <rc><c>Si</c><c>   2</c></rc>
    <rc><c>Si</c><c>   2</c></rc>
    <rc><c>Si</c><c>   2</c></rc>
    <rc><c>Si</c><c>   2</c></rc>
    <rc><c>Si</c><c>   2</c></rc>
    <rc><c>Si</c><c>   2</c></rc>
    <rc><c>Si</c><c>   2</c></rc>
    <rc><c>Si</c><c>   2</c></rc>
    <rc><c>Si</c><c>   2</c></rc>
    <rc><c>Si</c><c>   2</c></rc>
    <rc><c>Si</c><c>   2</c></rc>
    <rc><c>Si</c><c>   2</c></rc>
    <rc><c>Si</c><c>   2</c></rc>
    <rc><c>Si</c><c>   2</c></rc>
    <rc><c>Si</c><c>   2</c></rc>
    <rc><c>Si</c><c>   2</c></rc>
    <rc><c>Si</c><c>   2</c></rc>
    <rc><c>Si</c><c>   2</c></rc>
    <rc><c>Si</c><c>   2</c></rc>
    <rc><c>Si</c><c>   2</c></rc>
    <rc><c>Si</c><c>   2</c></rc>
    <rc><c>Si</c><c>   2</c></rc>
   </set>
  </array>
  <array name="atomtypes" >
   <dimension dim="1">type</dimension>
   <field type="int">atomspertype</field>
   <field type="string">element</field>
   <field>mass</field>
   <field>valence</field>
   <field type="string">pseudopotential</field>
   <set>
    <rc><c>  48</c><c>O </c><c>     16.00000000</c><c>      6.00000000</c><c> PAW_PBE O 08Apr2002                    </c></rc>
    <rc><c>  24</c><c>Si</c><c>     28.08500000</c><c>      4.00000000</c><c> PAW_PBE Si 05Jan2001                   </c></rc>
   </set>
  </array>
 </atominfo>
 <structure name="initialpos" >
  <crystal>
   <varray name="basis" >
    <v>       4.98700000       0.00000000       0.00000000 </v>
    <v>       0.00000000       8.19900000       0.00000000 </v>
    <v>       0.00000000       0.00000000      26.16300000 </v>
   </varray>
   <i name="volume">   1069.76354932 </i>
   <varray name="rec_basis" >
    <v>       0.20052136       0.00000000       0.00000000 </v>
    <v>       0.00000000       0.12196609       0.00000000 </v>
    <v>       0.00000000       0.00000000       0.03822192 </v>
   </varray>
  </crystal>
  <varray name="positions" >
   <v>       0.24900000       0.78500000       0.49110000 </v>
   <v>       0.74900000       0.71500000       0.50890000 </v>
   <v>       0.75100000       0.28500000       0.00890000 </v>
   <v>       0.25100000       0.21500000       0.99110000 </v>
   <v>       0.08200000       0.27300000       0.48930000 </v>
   <v>       0.58200000       0.22700000       0.51070000 </v>
   <v>       0.91800000       0.77300000       0.01070000 </v>
   <v>       0.41800000       0.72700000       0.98930000 </v>
   <v>       0.74600000       0.80100000       0.65720000 </v>
   <v>       0.24600000       0.69900000       0.34280000 </v>
   <v>       0.25400000       0.30100000       0.84280000 </v>
   <v>       0.75400000       0.19900000       0.15720000 </v>
   <v>       0.59000000       0.28500000       0.65640000 </v>
   <v>       0.09000000       0.21500000       0.34360000 </v>
   <v>       0.41000000       0.78500000       0.84360000 </v>
   <v>       0.91000000       0.71500000       0.15640000 </v>
   <v>       0.24700000       0.72500000       0.67540000 </v>
   <v>       0.58600000       0.76600000       0.74840000 </v>
   <v>       0.74700000       0.77500000       0.32460000 </v>
   <v>       0.25300000       0.27500000       0.17540000 </v>
   <v>       0.08800000       0.23500000       0.67620000 </v>
   <v>       0.58800000       0.26500000       0.32380000 </v>
   <v>       0.91200000       0.73500000       0.82380000 </v>
   <v>       0.41200000       0.76500000       0.17620000 </v>
   <v>       0.05800000       0.98600000       0.19350000 </v>
   <v>       0.55800000       0.51400000       0.80650000 </v>
   <v>       0.94200000       0.48600000       0.30650000 </v>
   <v>       0.44200000       0.01400000       0.69350000 </v>
   <v>       0.56500000       0.49000000       0.14030000 </v>
   <v>       0.06500000       0.01000000       0.85970000 </v>
   <v>       0.43500000       0.99000000       0.35970000 </v>
   <v>       0.93500000       0.51000000       0.64030000 </v>
   <v>       0.56800000       0.00100000       0.02990000 </v>
   <v>       0.06800000       0.49900000       0.97010000 </v>
   <v>       0.43200000       0.50100000       0.47010000 </v>
   <v>       0.93200000       0.99900000       0.52990000 </v>
   <v>       0.56300000       0.74300000       0.08250000 </v>
   <v>       0.06300000       0.75700000       0.91750000 </v>
   <v>       0.43700000       0.24300000       0.41750000 </v>
   <v>       0.93700000       0.25700000       0.58250000 </v>
   <v>       0.42800000       0.24100000       0.08230000 </v>
   <v>       0.92800000       0.25900000       0.91770000 </v>
   <v>       0.57200000       0.74100000       0.41770000 </v>
   <v>       0.07200000       0.75900000       0.58230000 </v>
   <v>       0.91400000       0.23400000       0.24840000 </v>
   <v>       0.41400000       0.26600000       0.75160000 </v>
   <v>       0.08600000       0.73400000       0.25160000 </v>
   <v>       0.75300000       0.22500000       0.82460000 </v>
   <v>       0.50460000       0.82600000       0.69450000 </v>
   <v>       0.00460000       0.67400000       0.30550000 </v>
   <v>       0.49540000       0.32600000       0.80550000 </v>
   <v>       0.99540000       0.17400000       0.19450000 </v>
   <v>       0.38690000       0.19870000       0.69460000 </v>
   <v>       0.88690000       0.30130000       0.30540000 </v>
   <v>       0.61310000       0.69870000       0.80540000 </v>
   <v>       0.11310000       0.80130000       0.19460000 </v>
   <v>       0.99810000       0.81570000       0.52820000 </v>
   <v>       0.49810000       0.68430000       0.47180000 </v>
   <v>       0.00190000       0.31570000       0.97180000 </v>
   <v>       0.50190000       0.18430000       0.02820000 </v>
   <v>       0.88200000       0.18820000       0.52780000 </v>
   <v>       0.38200000       0.31180000       0.47220000 </v>
   <v>       0.11800000       0.68820000       0.97220000 </v>
   <v>       0.61800000       0.81180000       0.02780000 </v>
   <v>       0.00430000       0.69880000       0.63930000 </v>
   <v>       0.50430000       0.80120000       0.36070000 </v>
   <v>       0.99570000       0.19880000       0.86070000 </v>
   <v>       0.49570000       0.30120000       0.13930000 </v>
   <v>       0.88880000       0.32140000       0.63900000 </v>
   <v>       0.38880000       0.17860000       0.36100000 </v>
   <v>       0.11120000       0.82140000       0.86100000 </v>
   <v>       0.61120000       0.67860000       0.13900000 </v>
  </varray>
 </structure>
 <calculation>
  <scstep>
   <time name="dav">   68.38   68.37</time>
   <time name="total">   69.68   69.76</time>
   <energy>
    <i name="alphaZ">    471.46950856 </i>
    <i name="ewald"> -11962.30908688 </i>
    <i name="hartreedc">  -9780.46310224 </i>
    <i name="XCdc">   1142.27497584 </i>
    <i name="pawpsdc">  12596.61348097 </i>
    <i name="pawaedc"> -12263.02150886 </i>
    <i name="eentropy">      0.00000000 </i>
    <i name="bandstr">   -674.33697859 </i>
    <i name="atom">  23226.77578591 </i>
    <i name="e_fr_energy">   2757.00307471 </i>
    <i name="e_wo_entrp">   2757.00307471 </i>
    <i name="e_0_energy">   2757.00307471 </i>
   </energy>
  </scstep>
  <scstep>
   <time name="dav">   78.02   78.02</time>
   <time name="total">   78.04   83.34</time>
   <energy>
    <i name="e_fr_energy">   -389.28120590 </i>
    <i name="e_wo_entrp">   -389.28120590 </i>
    <i name="e_0_energy">   -389.28120590 </i>
   </energy>
  </scstep>
  <scstep>
   <time name="dav">   77.90   77.90</time>
   <time name="total">   77.92   77.93</time>
   <energy>
    <i name="e_fr_energy">   -637.18458573 </i>
    <i name="e_wo_entrp">   -637.18458573 </i>
    <i name="e_0_energy">   -637.18458573 </i>
   </energy>
  </scstep>
  <scstep>
   <time name="dav">   78.29   78.29</time>
   <time name="total">   78.31   78.31</time>
   <energy>
    <i name="e_fr_energy">   -641.25566301 </i>
    <i name="e_wo_entrp">   -641.25566301 </i>
    <i name="e_0_energy">   -641.25566301 </i>
   </energy>
  </scstep>
  <scstep>
   <time name="dav">   78.84   78.84</time>
   <time name="total">   82.72   82.72</time>
   <energy>
    <i name="e_fr_energy">   -641.35083018 </i>
    <i name="e_wo_entrp">   -641.35083018 </i>
    <i name="e_0_energy">   -641.35083018 </i>
   </energy>
  </scstep>
  <scstep>
   <time name="diag">   11.62   11.62</time>
   <time name="diis">   43.64   43.65</time>
   <time name="orth">    1.48    1.48</time>
   <time name="total">   61.61   61.62</time>
   <energy>
    <i name="e_fr_energy">   -470.35679283 </i>
    <i name="e_wo_entrp">   -470.35679283 </i>
    <i name="e_0_energy">   -470.35679283 </i>
   </energy>
  </scstep>
  <scstep>
   <time name="diag">   11.57   11.57</time>
   <time name="diis">   43.56   43.56</time>
   <time name="orth">    1.48    1.48</time>
   <time name="total">   61.50   61.49</time>
   <energy>
    <i name="e_fr_energy">   -464.87890204 </i>
    <i name="e_wo_entrp">   -464.87890204 </i>
    <i name="e_0_energy">   -464.87890204 </i>
   </energy>
  </scstep>
  <scstep>
   <time name="diag">   11.61   11.62</time>
   <time name="diis">   43.71   43.71</time>
   <time name="orth">    1.48    1.48</time>
   <time name="total">   61.70   61.70</time>
   <energy>
    <i name="e_fr_energy">   -467.60396229 </i>
    <i name="e_wo_entrp">   -467.60396229 </i>
    <i name="e_0_energy">   -467.60396229 </i>
   </energy>
  </scstep>
  <scstep>
   <time name="diag">   11.60   11.60</time>
   <time name="diis">   43.70   43.70</time>
   <time name="orth">    1.48    1.48</time>
   <time name="total">   61.66   61.66</time>
   <energy>
    <i name="e_fr_energy">   -483.55341703 </i>
    <i name="e_wo_entrp">   -483.55341703 </i>
    <i name="e_0_energy">   -483.55341703 </i>
   </energy>
  </scstep>
  <scstep>
   <time name="diag">   11.59   11.59</time>
   <time name="diis">   43.48   43.48</time>
   <time name="orth">    1.48    1.48</time>
   <time name="total">   61.43   61.44</time>
   <energy>
    <i name="e_fr_energy">   -498.21430103 </i>
    <i name="e_wo_entrp">   -498.21430103 </i>
    <i name="e_0_energy">   -498.21430103 </i>
   </energy>
  </scstep>
  <scstep>
   <time name="diag">   11.64   11.64</time>
   <time name="diis">   43.77   43.77</time>
   <time name="orth">    1.48    1.48</time>
   <time name="total">   61.75   61.75</time>
   <energy>
    <i name="e_fr_energy">   -545.98281124 </i>
    <i name="e_wo_entrp">   -545.98281124 </i>
    <i name="e_0_energy">   -545.98281124 </i>
   </energy>
  </scstep>
  <scstep>
   <time name="diag">   11.66   11.67</time>
   <time name="diis">   43.68   43.67</time>
   <time name="orth">    1.48    1.48</time>
   <time name="total">   61.74   61.74</time>
   <energy>
    <i name="e_fr_energy">   -562.15850398 </i>
    <i name="e_wo_entrp">   -562.15850398 </i>
    <i name="e_0_energy">   -562.15850398 </i>
   </energy>
  </scstep>
  <scstep>
   <time name="diag">   11.70   11.69</time>
   <time name="diis">   43.53   43.52</time>
   <time name="orth">    1.48    1.48</time>
   <time name="total">   61.62   64.45</time>
   <energy>
    <i name="e_fr_energy">   -563.69984202 </i>
    <i name="e_wo_entrp">   -563.69984202 </i>
    <i name="e_0_energy">   -563.69984202 </i>
   </energy>
  </scstep>
  <scstep>
   <time name="diag">   11.70   11.70</time>
   <time name="diis">   43.65   43.65</time>
   <time name="orth">    1.48    1.48</time>
   <time name="total">   61.69   61.69</time>
   <energy>
    <i name="e_fr_energy">   -564.33334959 </i>
    <i name="e_wo_entrp">   -564.33334959 </i>
    <i name="e_0_energy">   -564.33334959 </i>
   </energy>
  </scstep>
  <scstep>
   <time name="diag">   11.68   11.68</time>
   <time name="diis">   43.43   43.44</time>
   <time name="orth">    1.48    1.48</time>
   <time name="total">   61.44   61.44</time>
   <energy>
    <i name="e_fr_energy">   -564.26646957 </i>
    <i name="e_wo_entrp">   -564.26646957 </i>
    <i name="e_0_energy">   -564.26646957 </i>
   </energy>
  </scstep>
  <scstep>
   <time name="diag">   11.54   11.53</time>
   <time name="diis">   43.51   43.51</time>
   <time name="orth">    1.48    1.48</time>
   <time name="total">   61.37   61.38</time>
   <energy>
    <i name="e_fr_energy">   -564.26753391 </i>
    <i name="e_wo_entrp">   -564.26753391 </i>
    <i name="e_0_energy">   -564.26753391 </i>
   </energy>
  </scstep>
  <scstep>
   <time name="diag">   11.58   11.57</time>
   <time name="diis">   43.76   43.76</time>
   <time name="orth">    1.48    1.48</time>
   <time name="total">   61.67   61.67</time>
   <energy>
    <i name="e_fr_energy">   -564.26311698 </i>
    <i name="e_wo_entrp">   -564.26311698 </i>
    <i name="e_0_energy">   -564.26311698 </i>
   </energy>
  </scstep>
  <scstep>
   <time name="diag">   11.54   11.54</time>
   <time name="diis">   43.46   43.47</time>
   <time name="orth">    1.47    1.47</time>
   <time name="total">   61.33   61.33</time>
   <energy>
    <i name="e_fr_energy">   -564.26276999 </i>
    <i name="e_wo_entrp">   -564.26276999 </i>
    <i name="e_0_energy">   -564.26276999 </i>
   </energy>
  </scstep>
  <scstep>
   <time name="diag">   11.57   11.57</time>
   <time name="diis">   43.57   43.57</time>
   <time name="orth">    1.47    1.47</time>
   <time name="total">   61.47   67.27</time>
   <energy>
    <i name="e_fr_energy">   -564.26263511 </i>
    <i name="e_wo_entrp">   -564.26263511 </i>
    <i name="e_0_energy">   -564.26263511 </i>
   </energy>
  </scstep>
  <scstep>
   <time name="diag">   11.54   11.54</time>
   <time name="diis">   43.73   43.73</time>
   <time name="orth">    1.48    1.48</time>
   <time name="total">   61.62   61.62</time>
   <energy>
    <i name="e_fr_energy">   -564.26262830 </i>
    <i name="e_wo_entrp">   -564.26262830 </i>
    <i name="e_0_energy">   -564.26262830 </i>
   </energy>
  </scstep>
  <scstep>
   <time name="diag">   11.65   11.65</time>
   <time name="diis">   37.26   37.27</time>
   <time name="orth">    1.47    1.47</time>
   <time name="total">   55.25   55.27</time>
   <energy>
    <i name="e_fr_energy">   -564.26261859 </i>
    <i name="e_wo_entrp">   -564.26261859 </i>
    <i name="e_0_energy">   -564.26261859 </i>
   </energy>
  </scstep>
  <scstep>
   <time name="diag">   11.62   11.62</time>
   <time name="diis">   43.32   43.32</time>
   <time name="orth">    1.48    1.48</time>
   <time name="total">   61.30   61.30</time>
   <energy>
    <i name="e_fr_energy">   -564.26261884 </i>
    <i name="e_wo_entrp">   -564.26261884 </i>
    <i name="e_0_energy">   -564.26261884 </i>
   </energy>
  </scstep>
  <scstep>
   <time name="diag">   11.61   11.61</time>
   <time name="diis">   28.75   28.75</time>
   <time name="orth">    1.48    1.48</time>
   <time name="total">   43.05   43.05</time>
   <energy>
    <i name="alphaZ">    471.46950856 </i>
    <i name="ewald"> -11962.30908688 </i>
    <i name="hartreedc"> -11057.39020161 </i>
    <i name="XCdc">   1218.38212422 </i>
    <i name="pawpsdc">  16754.29841148 </i>
    <i name="pawaedc"> -16443.27797687 </i>
    <i name="eentropy">      0.00000000 </i>
    <i name="bandstr">  -2772.21118195 </i>
    <i name="atom">  23226.77578591 </i>
    <i name="e_fr_energy">   -564.26261714 </i>
    <i name="e_wo_entrp">   -564.26261714 </i>
    <i name="e_0_energy">   -564.26261714 </i>
   </energy>
  </scstep>
  <v type="logical" name="LVDW"> F  </v>
  <structure>
   <crystal>
    <varray name="basis" >
     <v>       4.98700000       0.00000000       0.00000000 </v>
     <v>       0.00000000       8.19900000       0.00000000 </v>
     <v>       0.00000000       0.00000000      26.16300000 </v>
    </varray>
    <i name="volume">   1069.76354932 </i>
    <varray name="rec_basis" >
     <v>       0.20052136       0.00000000       0.00000000 </v>
     <v>       0.00000000       0.12196609       0.00000000 </v>
     <v>       0.00000000       0.00000000       0.03822192 </v>
    </varray>
   </crystal>
   <varray name="positions" >
    <v>       0.24900000       0.78500000       0.49110000 </v>
    <v>       0.74900000       0.71500000       0.50890000 </v>
    <v>       0.75100000       0.28500000       0.00890000 </v>
    <v>       0.25100000       0.21500000       0.99110000 </v>
    <v>       0.08200000       0.27300000       0.48930000 </v>
    <v>       0.58200000       0.22700000       0.51070000 </v>
    <v>       0.91800000       0.77300000       0.01070000 </v>
    <v>       0.41800000       0.72700000       0.98930000 </v>
    <v>       0.74600000       0.80100000       0.65720000 </v>
    <v>       0.24600000       0.69900000       0.34280000 </v>
    <v>       0.25400000       0.30100000       0.84280000 </v>
    <v>       0.75400000       0.19900000       0.15720000 </v>
    <v>       0.59000000       0.28500000       0.65640000 </v>
    <v>       0.09000000       0.21500000       0.34360000 </v>
    <v>       0.41000000       0.78500000       0.84360000 </v>
    <v>       0.91000000       0.71500000       0.15640000 </v>
    <v>       0.24700000       0.72500000       0.67540000 </v>
    <v>       0.58600000       0.76600000       0.74840000 </v>
    <v>       0.74700000       0.77500000       0.32460000 </v>
    <v>       0.25300000       0.27500000       0.17540000 </v>
    <v>       0.08800000       0.23500000       0.67620000 </v>
    <v>       0.58800000       0.26500000       0.32380000 </v>
    <v>       0.91200000       0.73500000       0.82380000 </v>
    <v>       0.41200000       0.76500000       0.17620000 </v>
    <v>       0.05800000       0.98600000       0.19350000 </v>
    <v>       0.55800000       0.51400000       0.80650000 </v>
    <v>       0.94200000       0.48600000       0.30650000 </v>
    <v>       0.44200000       0.01400000       0.69350000 </v>
    <v>       0.56500000       0.49000000       0.14030000 </v>
    <v>       0.06500000       0.01000000       0.85970000 </v>
    <v>       0.43500000       0.99000000       0.35970000 </v>
    <v>       0.93500000       0.51000000       0.64030000 </v>
    <v>       0.56800000       0.00100000       0.02990000 </v>
    <v>       0.06800000       0.49900000       0.97010000 </v>
    <v>       0.43200000       0.50100000       0.47010000 </v>
    <v>       0.93200000       0.99900000       0.52990000 </v>
    <v>       0.56300000       0.74300000       0.08250000 </v>
    <v>       0.06300000       0.75700000       0.91750000 </v>
    <v>       0.43700000       0.24300000       0.41750000 </v>
    <v>       0.93700000       0.25700000       0.58250000 </v>
    <v>       0.42800000       0.24100000       0.08230000 </v>
    <v>       0.92800000       0.25900000       0.91770000 </v>
    <v>       0.57200000       0.74100000       0.41770000 </v>
    <v>       0.07200000       0.75900000       0.58230000 </v>
    <v>       0.91400000       0.23400000       0.24840000 </v>
    <v>       0.41400000       0.26600000       0.75160000 </v>
    <v>       0.08600000       0.73400000       0.25160000 </v>
    <v>       0.75300000       0.22500000       0.82460000 </v>
    <v>       0.50460000       0.82600000       0.69450000 </v>
    <v>       0.00460000       0.67400000       0.30550000 </v>
    <v>       0.49540000       0.32600000       0.80550000 </v>
    <v>       0.99540000       0.17400000       0.19450000 </v>
    <v>       0.38690000       0.19870000       0.69460000 </v>
    <v>       0.88690000       0.30130000       0.30540000 </v>
    <v>       0.61310000       0.69870000       0.80540000 </v>
    <v>       0.11310000       0.80130000       0.19460000 </v>
    <v>       0.99810000       0.81570000       0.52820000 </v>
    <v>       0.49810000       0.68430000       0.47180000 </v>
    <v>       0.00190000       0.31570000       0.97180000 </v>
    <v>       0.50190000       0.18430000       0.02820000 </v>
    <v>       0.88200000       0.18820000       0.52780000 </v>
    <v>       0.38200000       0.31180000       0.47220000 </v>
    <v>       0.11800000       0.68820000       0.97220000 </v>
    <v>       0.61800000       0.81180000       0.02780000 </v>
    <v>       0.00430000       0.69880000       0.63930000 </v>
    <v>       0.50430000       0.80120000       0.36070000 </v>
    <v>       0.99570000       0.19880000       0.86070000 </v>
    <v>       0.49570000       0.30120000       0.13930000 </v>
    <v>       0.88880000       0.32140000       0.63900000 </v>
    <v>       0.38880000       0.17860000       0.36100000 </v>
    <v>       0.11120000       0.82140000       0.86100000 </v>
    <v>       0.61120000       0.67860000       0.13900000 </v>
   </varray>
  </structure>
  <varray name="forces" >
   <v>      -0.82800045       0.95800756       0.06909221 </v>
   <v>      -0.82800045      -0.95800756      -0.06909221 </v>
   <v>       0.82800045       0.95800756      -0.06909221 </v>
   <v>       0.82800045      -0.95800756       0.06909221 </v>
   <v>       0.04080827       0.61228373      -0.97138971 </v>
   <v>       0.04080827      -0.61228373       0.97138971 </v>
   <v>      -0.04080827       0.61228373       0.97138971 </v>
   <v>      -0.04080827      -0.61228373      -0.97138971 </v>
   <v>       1.20411002      -0.05716227      -1.24582714 </v>
   <v>       1.20411002       0.05716227       1.24582714 </v>
   <v>      -1.20411002      -0.05716227       1.24582714 </v>
   <v>      -1.20411002       0.05716227      -1.24582714 </v>
   <v>      -0.61440876       0.46890078      -0.26657217 </v>
   <v>      -0.61440876      -0.46890078       0.26657217 </v>
   <v>       0.61440876       0.46890078       0.26657217 </v>
   <v>       0.61440876      -0.46890078      -0.26657217 </v>
   <v>       1.49755212       0.20022106       1.44235989 </v>
   <v>       0.35629115      -0.40513857       1.74114885 </v>
   <v>       1.49755212      -0.20022106      -1.44235989 </v>
   <v>      -1.49755212      -0.20022106       1.44235989 </v>
   <v>       0.53592290      -0.99232580       1.29622013 </v>
   <v>       0.53592290       0.99232580      -1.29622013 </v>
   <v>      -0.53592290      -0.99232580      -1.29622013 </v>
   <v>      -0.53592290       0.99232580       1.29622013 </v>
   <v>       0.16753409       1.35424250       0.27239200 </v>
   <v>       0.16753409      -1.35424250      -0.27239200 </v>
   <v>      -0.16753409       1.35424250      -0.27239200 </v>
   <v>      -0.16753409      -1.35424250       0.27239200 </v>
   <v>       0.02628246      -1.01875897      -0.04686301 </v>
   <v>       0.02628246       1.01875897       0.04686301 </v>
   <v>      -0.02628246      -1.01875897       0.04686301 </v>
   <v>      -0.02628246       1.01875897      -0.04686301 </v>
   <v>       0.56054617      -1.57186912      -0.24939892 </v>
   <v>       0.56054617       1.57186912       0.24939892 </v>
   <v>      -0.56054617      -1.57186912       0.24939892 </v>
   <v>      -0.56054617       1.57186912      -0.24939892 </v>
   <v>      -0.38385622      -0.49445063       1.07599254 </v>
   <v>      -0.38385622       0.49445063      -1.07599254 </v>
   <v>       0.38385622      -0.49445063      -1.07599254 </v>
   <v>       0.38385622       0.49445063       1.07599254 </v>
   <v>      -1.25860101       1.20707451       3.11239199 </v>
   <v>      -1.25860101      -1.20707451      -3.11239199 </v>
   <v>       1.25860101       1.20707451      -3.11239199 </v>
   <v>       1.25860101      -1.20707451       3.11239199 </v>
   <v>      -0.35629115       0.40513857       1.74114885 </v>
   <v>      -0.35629115      -0.40513857      -1.74114885 </v>
   <v>       0.35629115       0.40513857      -1.74114885 </v>
   <v>      -1.49755212       0.20022106      -1.44235989 </v>
   <v>      -1.03939277      -0.14358441      -0.96986244 </v>
   <v>      -1.03939277       0.14358441       0.96986244 </v>
   <v>       1.03939277      -0.14358441       0.96986244 </v>
   <v>       1.03939277       0.14358441      -0.96986244 </v>
   <v>      -0.43928857       1.72860963       0.04514184 </v>
   <v>      -0.43928857      -1.72860963      -0.04514184 </v>
   <v>       0.43928857       1.72860963      -0.04514184 </v>
   <v>       0.43928857      -1.72860963       0.04514184 </v>
   <v>       0.54142845      -1.04026628      -2.17748961 </v>
   <v>       0.54142845       1.04026628       2.17748961 </v>
   <v>      -0.54142845      -1.04026628       2.17748961 </v>
   <v>      -0.54142845       1.04026628      -2.17748961 </v>
   <v>      -0.47106757       0.04381336      -0.43470784 </v>
   <v>      -0.47106757      -0.04381336       0.43470784 </v>
   <v>       0.47106757       0.04381336       0.43470784 </v>
   <v>       0.47106757      -0.04381336      -0.43470784 </v>
   <v>      -1.46642764       0.03762518      -1.44067758 </v>
   <v>      -1.46642764      -0.03762518       1.44067758 </v>
   <v>       1.46642764       0.03762518       1.44067758 </v>
   <v>       1.46642764      -0.03762518      -1.44067758 </v>
   <v>      -0.59949477      -0.12357404      -0.96997353 </v>
   <v>      -0.59949477       0.12357404       0.96997353 </v>
   <v>       0.59949477      -0.12357404       0.96997353 </v>
   <v>       0.59949477       0.12357404      -0.96997353 </v>
  </varray>
  <varray name="stress" >
   <v>     130.77245541       0.00000000       0.00000000 </v>
   <v>       0.00000000     173.50607100       0.00000000 </v>
   <v>       0.00000000       0.00000000     159.84812999 </v>
  </varray>
  <energy>
   <i name="e_fr_energy">   -564.26261714 </i>
   <i name="e_wo_entrp">   -564.26261714 </i>
   <i name="e_0_energy">      0.00000000 </i>
  </energy>
  <time name="totalsc"> 1584.47 1598.61</time>
 </calculation>
 <calculation>
  <scstep>
   <time name="dav">   72.21   72.21</time>
   <time name="total">   77.02   77.02</time>
   <energy>
    <i name="alphaZ">    385.74165077 </i>
    <i name="ewald"> -11234.63737716 </i>
    <i name="hartreedc"> -10282.02567355 </i>
    <i name="XCdc">   1118.63334891 </i>
    <i name="pawpsdc">  16754.45424499 </i>
    <i name="pawaedc"> -16443.43535136 </i>
    <i name="eentropy">      0.00000000 </i>
    <i name="bandstr">  -4151.70777572 </i>
    <i name="atom">  23226.77578591 </i>
    <i name="e_fr_energy">   -626.20114721 </i>
    <i name="e_wo_entrp">   -626.20114721 </i>
    <i name="e_0_energy">   -626.20114721 </i>
   </energy>
  </scstep>
  <scstep>
   <time name="diag">   11.61   11.61</time>
   <time name="diis">   42.75   42.75</time>
   <time name="orth">    1.48    1.48</time>
   <time name="total">   60.81   60.81</time>
   <energy>
    <i name="e_fr_energy">   -557.09528241 </i>
    <i name="e_wo_entrp">   -557.09528241 </i>
    <i name="e_0_energy">   -557.09528241 </i>
   </energy>
  </scstep>
  <scstep>
   <time name="diag">   11.68   11.68</time>
   <time name="diis">   42.80   42.80</time>
   <time name="orth">    1.47    1.47</time>
   <time name="total">   60.91   60.91</time>
   <energy>
    <i name="e_fr_energy">   -552.78185452 </i>
    <i name="e_wo_entrp">   -552.78185452 </i>
    <i name="e_0_energy">   -552.78185452 </i>
   </energy>
  </scstep>
  <scstep>
   <time name="diag">   11.67   11.67</time>
   <time name="diis">   43.03   43.02</time>
   <time name="orth">    1.47    1.47</time>
   <time name="total">   61.12   61.50</time>
   <energy>
    <i name="e_fr_energy">   -551.65891389 </i>
    <i name="e_wo_entrp">   -551.65891389 </i>
    <i name="e_0_energy">   -551.65891389 </i>
   </energy>
  </scstep>
  <scstep>
   <time name="diag">   11.64   11.65</time>
   <time name="diis">   42.78   42.78</time>
   <time name="orth">    1.48    1.48</time>
   <time name="total">   60.86   60.87</time>
   <energy>
    <i name="e_fr_energy">   -551.36844724 </i>
    <i name="e_wo_entrp">   -551.36844724 </i>
    <i name="e_0_energy">   -551.36844724 </i>
   </energy>
  </scstep>
  <scstep>
   <time name="diag">   11.64   11.64</time>
   <time name="diis">   42.74   42.74</time>
   <time name="orth">    1.48    1.47</time>
   <time name="total">   60.81   60.92</time>
   <energy>
    <i name="e_fr_energy">   -551.35608357 </i>
    <i name="e_wo_entrp">   -551.35608357 </i>
    <i name="e_0_energy">   -551.35608357 </i>
   </energy>
  </scstep>
  <scstep>
   <time name="diag">   11.66   11.67</time>
   <time name="diis">   42.78   42.78</time>
   <time name="orth">    1.48    1.47</time>
   <time name="total">   60.72   60.72</time>
   <energy>
    <i name="e_fr_energy">   -551.28228853 </i>
    <i name="e_wo_entrp">   -551.28228853 </i>
    <i name="e_0_energy">   -551.28228853 </i>
   </energy>
  </scstep>
  <scstep>
   <time name="diag">   11.66   11.66</time>
   <time name="diis">   42.79   42.80</time>
   <time name="orth">    1.48    1.48</time>
   <time name="total">   60.72   60.73</time>
   <energy>
    <i name="e_fr_energy">   -551.27755951 </i>
    <i name="e_wo_entrp">   -551.27755951 </i>
    <i name="e_0_energy">   -551.27755951 </i>
   </energy>
  </scstep>
  <scstep>
   <time name="diag">   11.68   11.68</time>
   <time name="diis">   42.93   42.92</time>
   <time name="orth">    1.48    1.47</time>
   <time name="total">   60.87   60.87</time>
   <energy>
    <i name="e_fr_energy">   -551.27236121 </i>
    <i name="e_wo_entrp">   -551.27236121 </i>
    <i name="e_0_energy">   -551.27236121 </i>
   </energy>
  </scstep>
  <scstep>
   <time name="diag">   11.66   11.66</time>
   <time name="diis">   42.76   42.76</time>
   <time name="orth">    1.48    1.48</time>
   <time name="total">   60.70   60.70</time>
   <energy>
    <i name="e_fr_energy">   -551.27183388 </i>
    <i name="e_wo_entrp">   -551.27183388 </i>
    <i name="e_0_energy">   -551.27183388 </i>
   </energy>
  </scstep>
  <scstep>
   <time name="diag">   11.67   11.67</time>
   <time name="diis">   43.01   43.01</time>
   <time name="orth">    1.47    1.47</time>
   <time name="total">   60.94   60.94</time>
   <energy>
    <i name="e_fr_energy">   -551.27166821 </i>
    <i name="e_wo_entrp">   -551.27166821 </i>
    <i name="e_0_energy">   -551.27166821 </i>
   </energy>
  </scstep>
  <scstep>
   <time name="diag">   11.62   11.62</time>
   <time name="diis">   42.75   42.75</time>
   <time name="orth">    1.48    1.48</time>
   <time name="total">   60.66   60.66</time>
   <energy>
    <i name="e_fr_energy">   -551.27167715 </i>
    <i name="e_wo_entrp">   -551.27167715 </i>
    <i name="e_0_energy">   -551.27167715 </i>
   </energy>
  </scstep>
  <scstep>
   <time name="diag">   11.62   11.62</time>
   <time name="diis">   42.16   42.16</time>
   <time name="orth">    1.48    1.48</time>
   <time name="total">   60.08   60.08</time>
   <energy>
    <i name="e_fr_energy">   -551.27166214 </i>
    <i name="e_wo_entrp">   -551.27166214 </i>
    <i name="e_0_energy">   -551.27166214 </i>
   </energy>
  </scstep>
  <scstep>
   <time name="diag">   11.62   11.62</time>
   <time name="diis">   42.20   42.20</time>
   <time name="orth">    1.47    1.47</time>
   <time name="total">   60.10   60.10</time>
   <energy>
    <i name="e_fr_energy">   -551.27166176 </i>
    <i name="e_wo_entrp">   -551.27166176 </i>
    <i name="e_0_energy">   -551.27166176 </i>
   </energy>
  </scstep>
  <scstep>
   <time name="diag">   11.61   11.61</time>
   <time name="diis">   28.40   28.40</time>
   <time name="orth">    1.48    1.48</time>
   <time name="total">   46.30   46.31</time>
   <energy>
    <i name="e_fr_energy">   -551.27165969 </i>
    <i name="e_wo_entrp">   -551.27165969 </i>
    <i name="e_0_energy">   -551.27165969 </i>
   </energy>
  </scstep>
  <scstep>
   <time name="diag">   11.63   11.63</time>
   <time name="diis">   28.82   28.82</time>
   <time name="orth">    1.48    1.48</time>
   <time name="total">   43.11   43.12</time>
   <energy>
    <i name="alphaZ">    385.74165077 </i>
    <i name="ewald"> -11234.63737716 </i>
    <i name="hartreedc"> -11359.49293324 </i>
    <i name="XCdc">   1180.27086860 </i>
    <i name="pawpsdc">  15785.77889616 </i>
    <i name="pawaedc"> -15467.59469405 </i>
    <i name="eentropy">      0.00000000 </i>
    <i name="bandstr">  -3068.11385654 </i>
    <i name="atom">  23226.77578591 </i>
    <i name="e_fr_energy">   -551.27165954 </i>
    <i name="e_wo_entrp">   -551.27165954 </i>
    <i name="e_0_energy">   -551.27165954 </i>
   </energy>
  </scstep>
  <structure>
   <crystal>
    <varray name="basis" >
     <v>       5.27876390       0.00000000       0.00000000 </v>
     <v>       0.00000000       8.83543121       0.00000000 </v>
     <v>       0.00000000       0.00000000      28.03398804 </v>
    </varray>
    <i name="volume">   1307.50955688 </i>
    <varray name="rec_basis" >
     <v>       0.18943829       0.00000000       0.00000000 </v>
     <v>       0.00000000       0.11318067       0.00000000 </v>
     <v>       0.00000000       0.00000000       0.03567099 </v>
    </varray>
   </crystal>
   <varray name="positions" >
    <v>       0.24099019       0.79063689       0.49122740 </v>
    <v>       0.74099019       0.70936311       0.50877260 </v>
    <v>       0.75900981       0.29063689       0.00877260 </v>
    <v>       0.25900981       0.20936311       0.99122740 </v>
    <v>       0.08239477       0.27660266       0.48750883 </v>
    <v>       0.58239477       0.22339734       0.51249117 </v>
    <v>       0.91760523       0.77660266       0.01249117 </v>
    <v>       0.41760523       0.72339734       0.98750883 </v>
    <v>       0.75764818       0.80066366       0.65490279 </v>
    <v>       0.25764818       0.69933634       0.34509721 </v>
    <v>       0.24235182       0.30066366       0.84509721 </v>
    <v>       0.74235182       0.19933634       0.15490279 </v>
    <v>       0.58405640       0.28775900       0.65590846 </v>
    <v>       0.08405640       0.21224100       0.34409154 </v>
    <v>       0.41594360       0.78775900       0.84409154 </v>
    <v>       0.91594360       0.71224100       0.15590846 </v>
    <v>       0.26148684       0.72617809       0.67805961 </v>
    <v>       0.58944665       0.76361618       0.75161055 </v>
    <v>       0.76148684       0.77382191       0.32194039 </v>
    <v>       0.23851316       0.27382191       0.17805961 </v>
    <v>       0.09318435       0.22916119       0.67859013 </v>
    <v>       0.59318435       0.27083881       0.32140987 </v>
    <v>       0.90681565       0.72916119       0.82140987 </v>
    <v>       0.40681565       0.77083881       0.17859013 </v>
    <v>       0.05962067       0.99396832       0.19400227 </v>
    <v>       0.55962067       0.50603168       0.80599773 </v>
    <v>       0.94037933       0.49396832       0.30599773 </v>
    <v>       0.44037933       0.00603168       0.69400227 </v>
    <v>       0.56525425       0.48400565       0.14021359 </v>
    <v>       0.06525425       0.01599435       0.85978641 </v>
    <v>       0.43474575       0.98400565       0.35978641 </v>
    <v>       0.93474575       0.51599435       0.64021359 </v>
    <v>       0.57342255      -0.00824883       0.02944013 </v>
    <v>       0.07342255       0.50824883       0.97055987 </v>
    <v>       0.42657745       0.49175117       0.47055987 </v>
    <v>       0.92657745       0.00824883       0.52944013 </v>
    <v>       0.55928670       0.74009067       0.08448405 </v>
    <v>       0.05928670       0.75990933       0.91551595 </v>
    <v>       0.44071330       0.24009067       0.41551595 </v>
    <v>       0.94071330       0.25990933       0.58448405 </v>
    <v>       0.41582469       0.24810239       0.08803902 </v>
    <v>       0.91582469       0.25189761       0.91196098 </v>
    <v>       0.58417531       0.74810239       0.41196098 </v>
    <v>       0.08417531       0.75189761       0.58803902 </v>
    <v>       0.91055335       0.23638382       0.25161055 </v>
    <v>       0.41055335       0.26361618       0.74838945 </v>
    <v>       0.08944665       0.73638382       0.24838945 </v>
    <v>       0.73851316       0.22617809       0.82194039 </v>
    <v>       0.49454524       0.82515515       0.69271164 </v>
    <v>      -0.00545476       0.67484485       0.30728836 </v>
    <v>       0.50545476       0.32515515       0.80728836 </v>
    <v>       0.00545476       0.17484485       0.19271164 </v>
    <v>       0.38265046       0.20887108       0.69468324 </v>
    <v>       0.88265046       0.29112892       0.30531676 </v>
    <v>       0.61734954       0.70887108       0.80531676 </v>
    <v>       0.11734954       0.79112892       0.19468324 </v>
    <v>       0.00333761       0.80957911       0.52418487 </v>
    <v>       0.50333761       0.69042089       0.47581513 </v>
    <v>      -0.00333761       0.30957911       0.97581513 </v>
    <v>       0.49666239       0.19042089       0.02418487 </v>
    <v>       0.87744304       0.18845780       0.52699843 </v>
    <v>       0.37744304       0.31154220       0.47300157 </v>
    <v>       0.12255696       0.68845780       0.97300157 </v>
    <v>       0.62255696       0.81154220       0.02699843 </v>
    <v>      -0.00988576       0.69902139       0.63664350 </v>
    <v>       0.49011424       0.80097861       0.36335650 </v>
    <v>       0.00988576       0.19902139       0.86335650 </v>
    <v>       0.50988576       0.30097861       0.13664350 </v>
    <v>       0.88300068       0.32067289       0.63721144 </v>
    <v>       0.38300068       0.17932711       0.36278856 </v>
    <v>       0.11699932       0.82067289       0.86278856 </v>
    <v>       0.61699932       0.67932711       0.13721144 </v>
   </varray>
  </structure>
  <varray name="forces" >
   <v>       2.42113186      -1.32417475      -1.06239830 </v>
   <v>       2.42113186       1.32417475       1.06239830 </v>
   <v>      -2.42113186      -1.32417475       1.06239830 </v>
   <v>      -2.42113186       1.32417475      -1.06239830 </v>
   <v>      -0.68868630      -0.93259386       1.36457178 </v>
   <v>      -0.68868630       0.93259386      -1.36457178 </v>
   <v>       0.68868630      -0.93259386      -1.36457178 </v>
   <v>       0.68868630       0.93259386       1.36457178 </v>
   <v>      -1.89730368       0.15362796       1.42183906 </v>
   <v>      -1.89730368      -0.15362796      -1.42183906 </v>
   <v>       1.89730368       0.15362796      -1.42183906 </v>
   <v>       1.89730368      -0.15362796       1.42183906 </v>
   <v>       1.26832919      -0.05342077      -0.24033843 </v>
   <v>       1.26832919       0.05342077       0.24033843 </v>
   <v>      -1.26832919      -0.05342077       0.24033843 </v>
   <v>      -1.26832919       0.05342077      -0.24033843 </v>
   <v>      -3.24519863      -1.33617118      -2.42814526 </v>
   <v>      -0.92097316       1.06493550      -2.99027183 </v>
   <v>      -3.24519863       1.33617118       2.42814526 </v>
   <v>       3.24519863       1.33617118      -2.42814526 </v>
   <v>      -2.53052225       1.65578916      -2.69679401 </v>
   <v>      -2.53052225      -1.65578916       2.69679401 </v>
   <v>       2.53052225       1.65578916       2.69679401 </v>
   <v>       2.53052225      -1.65578916      -2.69679401 </v>
   <v>       0.16478411      -2.02441481      -0.14176008 </v>
   <v>       0.16478411       2.02441481       0.14176008 </v>
   <v>      -0.16478411      -2.02441481       0.14176008 </v>
   <v>      -0.16478411       2.02441481      -0.14176008 </v>
   <v>       0.32815692       2.06516281      -0.40186070 </v>
   <v>       0.32815692      -2.06516281       0.40186070 </v>
   <v>      -0.32815692       2.06516281       0.40186070 </v>
   <v>      -0.32815692      -2.06516281      -0.40186070 </v>
   <v>      -0.76286325       3.77282564      -0.63617208 </v>
   <v>      -0.76286325      -3.77282564       0.63617208 </v>
   <v>       0.76286325       3.77282564       0.63617208 </v>
   <v>       0.76286325      -3.77282564      -0.63617208 </v>
   <v>       0.51630183       0.97777643      -3.12064528 </v>
   <v>       0.51630183      -0.97777643       3.12064528 </v>
   <v>      -0.51630183       0.97777643       3.12064528 </v>
   <v>      -0.51630183      -0.97777643      -3.12064528 </v>
   <v>      -0.61304911      -2.22013158      -8.32579099 </v>
   <v>      -0.61304911       2.22013158       8.32579099 </v>
   <v>       0.61304911      -2.22013158       8.32579099 </v>
   <v>       0.61304911       2.22013158      -8.32579099 </v>
   <v>       0.92097316      -1.06493550      -2.99027183 </v>
   <v>       0.92097316       1.06493550       2.99027183 </v>
   <v>      -0.92097316      -1.06493550       2.99027183 </v>
   <v>       3.24519863      -1.33617118       2.42814526 </v>
   <v>       2.96436071       0.97537744       1.97449300 </v>
   <v>       2.96436071      -0.97537744      -1.97449300 </v>
   <v>      -2.96436071       0.97537744      -1.97449300 </v>
   <v>      -2.96436071      -0.97537744       1.97449300 </v>
   <v>       1.41307799      -2.94684548       0.01052035 </v>
   <v>       1.41307799       2.94684548      -0.01052035 </v>
   <v>      -1.41307799      -2.94684548      -0.01052035 </v>
   <v>      -1.41307799       2.94684548       0.01052035 </v>
   <v>      -2.31277190       2.41994143       5.45273885 </v>
   <v>      -2.31277190      -2.41994143      -5.45273885 </v>
   <v>       2.31277190       2.41994143      -5.45273885 </v>
   <v>       2.31277190      -2.41994143       5.45273885 </v>
   <v>       1.22815498       1.71003667       1.37460002 </v>
   <v>       1.22815498      -1.71003667      -1.37460002 </v>
   <v>      -1.22815498       1.71003667      -1.37460002 </v>
   <v>      -1.22815498      -1.71003667       1.37460002 </v>
   <v>       0.82756023      -1.83065723       6.07692343 </v>
   <v>       0.82756023       1.83065723      -6.07692343 </v>
   <v>      -0.82756023      -1.83065723      -6.07692343 </v>
   <v>      -0.82756023       1.83065723       6.07692343 </v>
   <v>       0.60762937       1.18810236       3.51439077 </v>
   <v>       0.60762937      -1.18810236      -3.51439077 </v>
   <v>      -0.60762937       1.18810236      -3.51439077 </v>
   <v>      -0.60762937      -1.18810236       3.51439077 </v>
  </varray>
  <varray name="stress" >
   <v>     -92.95031156       0.00000000       0.00000000 </v>
   <v>       0.00000000    -143.84704835       0.00000000 </v>
   <v>       0.00000000       0.00000000    -118.50329989 </v>
  </varray>
  <energy>
   <i name="e_fr_energy">   -551.27165954 </i>
   <i name="e_wo_entrp">   -551.27165954 </i>
   <i name="e_0_energy">      0.00000000 </i>
  </energy>
  <time name="totalsc"> 1041.53 1042.11</time>
 </calculation>
 <calculation>
  <scstep>
   <time name="dav">   71.56   71.56</time>
   <time name="total">   76.35   76.35</time>
   <energy>
    <i name="alphaZ">    443.27670503 </i>
    <i name="ewald"> -11765.18221571 </i>
    <i name="hartreedc"> -11908.88802653 </i>
    <i name="XCdc">   1250.84410458 </i>
    <i name="pawpsdc">  15785.79479116 </i>
    <i name="pawaedc"> -15467.61086275 </i>
    <i name="eentropy">      0.00000000 </i>
    <i name="bandstr">  -2174.17156465 </i>
    <i name="atom">  23226.77578591 </i>
    <i name="e_fr_energy">   -609.16128295 </i>
    <i name="e_wo_entrp">   -609.16128295 </i>
    <i name="e_0_energy">   -609.16128295 </i>
   </energy>
  </scstep>
  <scstep>
   <time name="diag">   11.62   11.62</time>
   <time name="diis">   43.07   43.07</time>
   <time name="orth">    1.47    1.47</time>
   <time name="total">   60.99   60.99</time>
   <energy>
    <i name="e_fr_energy">   -571.04740149 </i>
    <i name="e_wo_entrp">   -571.04740149 </i>
    <i name="e_0_energy">   -571.04740149 </i>
   </energy>
  </scstep>
  <scstep>
   <time name="diag">   11.60   11.60</time>
   <time name="diis">   43.21   43.21</time>
   <time name="orth">    1.47    1.47</time>
   <time name="total">   61.07   61.07</time>
   <energy>
    <i name="e_fr_energy">   -569.21372859 </i>
    <i name="e_wo_entrp">   -569.21372859 </i>
    <i name="e_0_energy">   -569.21372859 </i>
   </energy>
  </scstep>
  <scstep>
   <time name="diag">   11.62   11.62</time>
   <time name="diis">   43.25   43.25</time>
   <time name="orth">    1.48    1.48</time>
   <time name="total">   61.17   61.17</time>
   <energy>
    <i name="e_fr_energy">   -568.56931530 </i>
    <i name="e_wo_entrp">   -568.56931530 </i>
    <i name="e_0_energy">   -568.56931530 </i>
   </energy>
  </scstep>
  <scstep>
   <time name="diag">   11.62   11.62</time>
   <time name="diis">   43.37   43.37</time>
   <time name="orth">    1.47    1.47</time>
   <time name="total">   61.30   61.31</time>
   <energy>
    <i name="e_fr_energy">   -568.49754124 </i>
    <i name="e_wo_entrp">   -568.49754124 </i>
    <i name="e_0_energy">   -568.49754124 </i>
   </energy>
  </scstep>
  <scstep>
   <time name="diag">   11.63   11.63</time>
   <time name="diis">   43.18   43.18</time>
   <time name="orth">    1.47    1.47</time>
   <time name="total">   61.10   61.11</time>
   <energy>
    <i name="e_fr_energy">   -568.47355110 </i>
    <i name="e_wo_entrp">   -568.47355110 </i>
    <i name="e_0_energy">   -568.47355110 </i>
   </energy>
  </scstep>
  <scstep>
   <time name="diag">   11.62   11.62</time>
   <time name="diis">   43.25   43.25</time>
   <time name="orth">    1.47    1.47</time>
   <time name="total">   61.12   61.12</time>
   <energy>
    <i name="e_fr_energy">   -568.45929924 </i>
    <i name="e_wo_entrp">   -568.45929924 </i>
    <i name="e_0_energy">   -568.45929924 </i>
   </energy>
  </scstep>
  <scstep>
   <time name="diag">   11.63   11.64</time>
   <time name="diis">   43.50   43.49</time>
   <time name="orth">    1.48    1.48</time>
   <time name="total">   61.39   61.40</time>
   <energy>
    <i name="e_fr_energy">   -568.45541062 </i>
    <i name="e_wo_entrp">   -568.45541062 </i>
    <i name="e_0_energy">   -568.45541062 </i>
   </energy>
  </scstep>
  <scstep>
   <time name="diag">   11.60   11.60</time>
   <time name="diis">   43.23   43.23</time>
   <time name="orth">    1.47    1.47</time>
   <time name="total">   61.09   65.97</time>
   <energy>
    <i name="e_fr_energy">   -568.45404297 </i>
    <i name="e_wo_entrp">   -568.45404297 </i>
    <i name="e_0_energy">   -568.45404297 </i>
   </energy>
  </scstep>
  <scstep>
   <time name="diag">   11.64   11.64</time>
   <time name="diis">   43.63   43.62</time>
   <time name="orth">    1.47    1.47</time>
   <time name="total">   61.52   61.52</time>
   <energy>
    <i name="e_fr_energy">   -568.45389688 </i>
    <i name="e_wo_entrp">   -568.45389688 </i>
    <i name="e_0_energy">   -568.45389688 </i>
   </energy>
  </scstep>
  <scstep>
   <time name="diag">   11.62   11.61</time>
   <time name="diis">   43.31   43.31</time>
   <time name="orth">    1.48    1.47</time>
   <time name="total">   61.19   61.20</time>
   <energy>
    <i name="e_fr_energy">   -568.45388993 </i>
    <i name="e_wo_entrp">   -568.45388993 </i>
    <i name="e_0_energy">   -568.45388993 </i>
   </energy>
  </scstep>
  <scstep>
   <time name="diag">   11.58   11.58</time>
   <time name="diis">   39.92   39.91</time>
   <time name="orth">    1.48    1.48</time>
   <time name="total">   57.78   57.78</time>
   <energy>
    <i name="e_fr_energy">   -568.45388082 </i>
    <i name="e_wo_entrp">   -568.45388082 </i>
    <i name="e_0_energy">   -568.45388082 </i>
   </energy>
  </scstep>
  <scstep>
   <time name="diag">   11.58   11.59</time>
   <time name="diis">   38.05   38.04</time>
   <time name="orth">    1.48    1.48</time>
   <time name="total">   52.30   52.30</time>
   <energy>
    <i name="alphaZ">    443.27670503 </i>
    <i name="ewald"> -11765.18221571 </i>
    <i name="hartreedc"> -11124.67552742 </i>
    <i name="XCdc">   1205.54922807 </i>
    <i name="pawpsdc">  16387.08893665 </i>
    <i name="pawaedc"> -16073.53496767 </i>
    <i name="eentropy">      0.00000000 </i>
    <i name="bandstr">  -2867.75182431 </i>
    <i name="atom">  23226.77578591 </i>
    <i name="e_fr_energy">   -568.45387946 </i>
    <i name="e_wo_entrp">   -568.45387946 </i>
    <i name="e_0_energy">   -568.45387946 </i>
   </energy>
  </scstep>
  <structure>
   <crystal>
    <varray name="basis" >
     <v>       5.07454952       0.00000000       0.00000000 </v>
     <v>       0.00000000       8.38997375       0.00000000 </v>
     <v>       0.00000000       0.00000000      26.72442690 </v>
    </varray>
    <i name="volume">   1137.80148868 </i>
    <varray name="rec_basis" >
     <v>       0.19706183       0.00000000       0.00000000 </v>
     <v>       0.00000000       0.11918988       0.00000000 </v>
     <v>       0.00000000       0.00000000       0.03741895 </v>
    </varray>
   </crystal>
   <varray name="positions" >
    <v>       0.24628663       0.78697565       0.49114418 </v>
    <v>       0.74628663       0.71302435       0.50885582 </v>
    <v>       0.75371337       0.28697565       0.00885582 </v>
    <v>       0.25371337       0.21302435       0.99114418 </v>
    <v>       0.08213373       0.27426268       0.48867885 </v>
    <v>       0.58213373       0.22573732       0.51132115 </v>
    <v>       0.91786627       0.77426268       0.01132115 </v>
    <v>       0.41786627       0.72573732       0.98867885 </v>
    <v>       0.74994589       0.80088212       0.65640337 </v>
    <v>       0.24994589       0.69911788       0.34359663 </v>
    <v>       0.25005411       0.30088212       0.84359663 </v>
    <v>       0.75005411       0.19911788       0.15640337 </v>
    <v>       0.58798657       0.28596699       0.65622954 </v>
    <v>       0.08798657       0.21403301       0.34377046 </v>
    <v>       0.41201343       0.78596699       0.84377046 </v>
    <v>       0.91201343       0.71403301       0.15622954 </v>
    <v>       0.25190750       0.72541291       0.67632231 </v>
    <v>       0.58716757       0.76516450       0.74951336 </v>
    <v>       0.75190750       0.77458709       0.32367769 </v>
    <v>       0.24809250       0.27458709       0.17632231 </v>
    <v>       0.08975623       0.23295357       0.67702886 </v>
    <v>       0.58975623       0.26704643       0.32297114 </v>
    <v>       0.91024377       0.73295357       0.82297114 </v>
    <v>       0.41024377       0.76704643       0.17702886 </v>
    <v>       0.05854901       0.98879279       0.19367418 </v>
    <v>       0.55854901       0.51120721       0.80632582 </v>
    <v>       0.94145099       0.48879279       0.30632582 </v>
    <v>       0.44145099       0.01120721       0.69367418 </v>
    <v>       0.56508613       0.48789906       0.14027003 </v>
    <v>       0.06508613       0.01210094       0.85972997 </v>
    <v>       0.43491387       0.98789906       0.35972997 </v>
    <v>       0.93491387       0.51210094       0.64027003 </v>
    <v>       0.56983692      -0.00224159       0.02974052 </v>
    <v>       0.06983692       0.50224159       0.97025948 </v>
    <v>       0.43016308       0.49775841       0.47025948 </v>
    <v>       0.93016308       0.00224159       0.52974052 </v>
    <v>       0.56174210       0.74198032       0.08318804 </v>
    <v>       0.06174210       0.75801968       0.91681196 </v>
    <v>       0.43825790       0.24198032       0.41681196 </v>
    <v>       0.93825790       0.25801968       0.58318804 </v>
    <v>       0.42387554       0.24348929       0.08429020 </v>
    <v>       0.92387554       0.25651071       0.91570980 </v>
    <v>       0.57612446       0.74348929       0.41570980 </v>
    <v>       0.07612446       0.75651071       0.58429020 </v>
    <v>       0.91283243       0.23483550       0.24951336 </v>
    <v>       0.41283243       0.26516450       0.75048664 </v>
    <v>       0.08716757       0.73483550       0.25048664 </v>
    <v>       0.74809250       0.22541291       0.82367769 </v>
    <v>       0.50119389       0.82570389       0.69387983 </v>
    <v>       0.00119389       0.67429611       0.30612017 </v>
    <v>       0.49880611       0.32570389       0.80612017 </v>
    <v>      -0.00119389       0.17429611       0.19387983 </v>
    <v>       0.38546044       0.20226483       0.69462887 </v>
    <v>       0.88546044       0.29773517       0.30537113 </v>
    <v>       0.61453956       0.70226483       0.80537113 </v>
    <v>       0.11453956       0.79773517       0.19462887 </v>
    <v>      -0.00012573       0.81355471       0.52680762 </v>
    <v>       0.49987427       0.68644529       0.47319238 </v>
    <v>       0.00012573       0.31355471       0.97319238 </v>
    <v>       0.50012573       0.18644529       0.02680762 </v>
    <v>       0.88045630       0.18829035       0.52752203 </v>
    <v>       0.38045630       0.31170965       0.47247797 </v>
    <v>       0.11954370       0.68829035       0.97247797 </v>
    <v>       0.61954370       0.81170965       0.02752203 </v>
    <v>      -0.00050551       0.69887759       0.63837877 </v>
    <v>       0.49949449       0.80112241       0.36162123 </v>
    <v>       0.00050551       0.19887759       0.86162123 </v>
    <v>       0.50050551       0.30112241       0.13837877 </v>
    <v>       0.88683545       0.32114516       0.63837976 </v>
    <v>       0.38683545       0.17885484       0.36162024 </v>
    <v>       0.11316455       0.82114516       0.86162024 </v>
    <v>       0.61316455       0.67885484       0.13837976 </v>
   </varray>
  </structure>
  <varray name="forces" >
   <v>       0.45689883       0.03544132      -0.44454820 </v>
   <v>       0.45689883      -0.03544132       0.44454820 </v>
   <v>      -0.45689883       0.03544132       0.44454820 </v>
   <v>      -0.45689883      -0.03544132      -0.44454820 </v>
   <v>      -0.46545038      -0.05622244       0.05032885 </v>
   <v>      -0.46545038       0.05622244      -0.05032885 </v>
   <v>       0.46545038      -0.05622244      -0.05032885 </v>
   <v>       0.46545038       0.05622244       0.05032885 </v>
   <v>      -0.35081000       0.14988583       0.08771596 </v>
   <v>      -0.35081000      -0.14988583      -0.08771596 </v>
   <v>       0.35081000       0.14988583      -0.08771596 </v>
   <v>       0.35081000      -0.14988583       0.08771596 </v>
   <v>       0.12152585       0.28044939      -0.27739479 </v>
   <v>       0.12152585      -0.28044939       0.27739479 </v>
   <v>      -0.12152585       0.28044939       0.27739479 </v>
   <v>      -0.12152585      -0.28044939      -0.27739479 </v>
   <v>      -1.17621358      -0.56839178      -0.66354091 </v>
   <v>      -0.30494182       0.47173094      -0.96146221 </v>
   <v>      -1.17621358       0.56839178       0.66354091 </v>
   <v>       1.17621358       0.56839178      -0.66354091 </v>
   <v>      -1.17353857       0.32266397      -0.61221763 </v>
   <v>      -1.17353857      -0.32266397       0.61221763 </v>
   <v>       1.17353857       0.32266397       0.61221763 </v>
   <v>       1.17353857      -0.32266397      -0.61221763 </v>
   <v>       0.34959253      -1.06003083       0.13829866 </v>
   <v>       0.34959253       1.06003083      -0.13829866 </v>
   <v>      -0.34959253      -1.06003083      -0.13829866 </v>
   <v>      -0.34959253       1.06003083       0.13829866 </v>
   <v>       0.18040050       0.63071183      -0.13985739 </v>
   <v>       0.18040050      -0.63071183       0.13985739 </v>
   <v>      -0.18040050       0.63071183       0.13985739 </v>
   <v>      -0.18040050      -0.63071183      -0.13985739 </v>
   <v>      -0.14266254       1.51284284      -0.35355392 </v>
   <v>      -0.14266254      -1.51284284       0.35355392 </v>
   <v>       0.14266254       1.51284284       0.35355392 </v>
   <v>       0.14266254      -1.51284284      -0.35355392 </v>
   <v>      -0.02146278       0.25072820      -1.03218277 </v>
   <v>      -0.02146278      -0.25072820       1.03218277 </v>
   <v>       0.02146278       0.25072820       1.03218277 </v>
   <v>       0.02146278      -0.25072820      -1.03218277 </v>
   <v>      -0.44479389      -0.59242371      -2.70049341 </v>
   <v>      -0.44479389       0.59242371       2.70049341 </v>
   <v>       0.44479389      -0.59242371       2.70049341 </v>
   <v>       0.44479389       0.59242371      -2.70049341 </v>
   <v>       0.30494182      -0.47173094      -0.96146221 </v>
   <v>       0.30494182       0.47173094       0.96146221 </v>
   <v>      -0.30494182      -0.47173094       0.96146221 </v>
   <v>       1.17621358      -0.56839178       0.66354091 </v>
   <v>       0.96333869      -0.22247549       0.60942609 </v>
   <v>       0.96333869       0.22247549      -0.60942609 </v>
   <v>      -0.96333869      -0.22247549      -0.60942609 </v>
   <v>      -0.96333869       0.22247549       0.60942609 </v>
   <v>       0.49306809      -1.07112972      -0.03395652 </v>
   <v>       0.49306809       1.07112972       0.03395652 </v>
   <v>      -0.49306809      -1.07112972       0.03395652 </v>
   <v>      -0.49306809       1.07112972      -0.03395652 </v>
   <v>      -0.33361094       0.57289414       2.10791051 </v>
   <v>      -0.33361094      -0.57289414      -2.10791051 </v>
   <v>       0.33361094       0.57289414      -2.10791051 </v>
   <v>       0.33361094      -0.57289414       2.10791051 </v>
   <v>       0.42284620       1.03022172       0.53569415 </v>
   <v>       0.42284620      -1.03022172      -0.53569415 </v>
   <v>      -0.42284620       1.03022172      -0.53569415 </v>
   <v>      -0.42284620      -1.03022172       0.53569415 </v>
   <v>       0.51209202      -0.35923134       1.91381396 </v>
   <v>       0.51209202       0.35923134      -1.91381396 </v>
   <v>      -0.51209202      -0.35923134      -1.91381396 </v>
   <v>      -0.51209202       0.35923134       1.91381396 </v>
   <v>       0.28370326       0.45426872       1.18672839 </v>
   <v>       0.28370326      -0.45426872      -1.18672839 </v>
   <v>      -0.28370326       0.45426872      -1.18672839 </v>
   <v>      -0.28370326      -0.45426872       1.18672839 </v>
  </varray>
  <varray name="stress" >
   <v>      34.10841959       0.00000000       0.00000000 </v>
   <v>       0.00000000      32.73029606       0.00000000 </v>
   <v>       0.00000000       0.00000000      29.17126871 </v>
  </varray>
  <energy>
   <i name="e_fr_energy">   -568.45387946 </i>
   <i name="e_wo_entrp">   -568.45387946 </i>
   <i name="e_0_energy">      0.00000000 </i>
  </energy>
  <time name="totalsc">  885.16  892.06</time>
 </calculation>
 <calculation>
  <scstep>
   <time name="dav">   77.16   77.16</time>
   <time name="total">   81.95   81.94</time>
   <energy>
    <i name="alphaZ">    445.01776352 </i>
    <i name="ewald"> -11778.87396874 </i>
    <i name="hartreedc"> -11140.73614652 </i>
    <i name="XCdc">   1207.56018648 </i>
    <i name="pawpsdc">  16387.17435845 </i>
    <i name="pawaedc"> -16073.62134255 </i>
    <i name="eentropy">      0.00000000 </i>
    <i name="bandstr">  -2841.81032385 </i>
    <i name="atom">  23226.77578591 </i>
    <i name="e_fr_energy">   -568.51368731 </i>
    <i name="e_wo_entrp">   -568.51368731 </i>
    <i name="e_0_energy">   -568.51368731 </i>
   </energy>
  </scstep>
  <scstep>
   <time name="diag">   11.56   11.56</time>
   <time name="diis">   43.15   43.15</time>
   <time name="orth">    1.47    1.47</time>
   <time name="total">   60.97   60.98</time>
   <energy>
    <i name="e_fr_energy">   -568.48420687 </i>
    <i name="e_wo_entrp">   -568.48420687 </i>
    <i name="e_0_energy">   -568.48420687 </i>
   </energy>
  </scstep>
  <scstep>
   <time name="diag">   11.62   11.62</time>
   <time name="diis">   43.23   43.24</time>
   <time name="orth">    1.48    1.47</time>
   <time name="total">   61.12   61.12</time>
   <energy>
[...]
    <v>       0.94450741       0.25805706       0.58281987 </v>
    <v>       0.42680684       0.24395347       0.08346312 </v>
    <v>       0.92680684       0.25604653       0.91653688 </v>
    <v>       0.57319316       0.74395347       0.41653688 </v>
    <v>       0.07319316       0.75604653       0.58346312 </v>
    <v>       0.93613099       0.22834104       0.25129638 </v>
    <v>       0.43613099       0.27165896       0.74870362 </v>
    <v>       0.06386901       0.72834104       0.24870362 </v>
    <v>       0.75619155       0.21425996       0.82426106 </v>
    <v>       0.48656099       0.82573813       0.69520356 </v>
    <v>      -0.01343901       0.67426187       0.30479644 </v>
    <v>       0.51343901       0.32573813       0.80479644 </v>
    <v>       0.01343901       0.17426187       0.19520356 </v>
    <v>       0.36965730       0.20031225       0.69405549 </v>
    <v>       0.86965730       0.29968775       0.30594451 </v>
    <v>       0.63034270       0.70031225       0.80594451 </v>
    <v>       0.13034270       0.79968775       0.19405549 </v>
    <v>      -0.01600123       0.81362802       0.52796658 </v>
    <v>       0.48399877       0.68637198       0.47203342 </v>
    <v>       0.01600123       0.31362802       0.97203342 </v>
    <v>       0.51600123       0.18637198       0.02796658 </v>
    <v>       0.86916909       0.18858415       0.52806734 </v>
    <v>       0.36916909       0.31141585       0.47193266 </v>
    <v>       0.13083091       0.68858415       0.97193266 </v>
    <v>       0.63083091       0.81141585       0.02806734 </v>
    <v>      -0.01269429       0.69847283       0.63917124 </v>
    <v>       0.48730571       0.80152717       0.36082876 </v>
    <v>       0.01269429       0.19847283       0.86082876 </v>
    <v>       0.51269429       0.30152717       0.13917124 </v>
    <v>       0.86958665       0.32394988       0.63803967 </v>
    <v>       0.36958665       0.17605012       0.36196033 </v>
    <v>       0.13041335       0.82394988       0.86196033 </v>
    <v>       0.63041335       0.67605012       0.13803967 </v>
   </varray>
  </structure>
  <varray name="forces" >
   <v>      -0.00280217       0.00265394       0.00004433 </v>
   <v>      -0.00280217      -0.00265394      -0.00004433 </v>
   <v>       0.00280217       0.00265394      -0.00004433 </v>
   <v>       0.00280217      -0.00265394       0.00004433 </v>
   <v>      -0.00002435      -0.00407694      -0.00215169 </v>
   <v>      -0.00002435       0.00407694       0.00215169 </v>
   <v>       0.00002435      -0.00407694       0.00215169 </v>
   <v>       0.00002435       0.00407694      -0.00215169 </v>
   <v>      -0.00274268       0.00113670       0.00355483 </v>
   <v>      -0.00274268      -0.00113670      -0.00355483 </v>
   <v>       0.00274268       0.00113670      -0.00355483 </v>
   <v>       0.00274268      -0.00113670       0.00355483 </v>
   <v>       0.00042293      -0.00338477      -0.00270248 </v>
   <v>       0.00042293       0.00338477       0.00270248 </v>
   <v>      -0.00042293      -0.00338477       0.00270248 </v>
   <v>      -0.00042293       0.00338477      -0.00270248 </v>
   <v>      -0.00147740      -0.00285738       0.00113726 </v>
   <v>      -0.00536063       0.00195509      -0.00369530 </v>
   <v>      -0.00147740       0.00285738      -0.00113726 </v>
   <v>       0.00147740       0.00285738       0.00113726 </v>
   <v>       0.00022810       0.00189644       0.00211497 </v>
   <v>       0.00022810      -0.00189644      -0.00211497 </v>
   <v>      -0.00022810       0.00189644      -0.00211497 </v>
   <v>      -0.00022810      -0.00189644       0.00211497 </v>
   <v>       0.00150408       0.00854472       0.00102892 </v>
   <v>       0.00150408      -0.00854472      -0.00102892 </v>
   <v>      -0.00150408       0.00854472      -0.00102892 </v>
   <v>      -0.00150408      -0.00854472       0.00102892 </v>
   <v>       0.00349475       0.00464369       0.00031648 </v>
   <v>       0.00349475      -0.00464369      -0.00031648 </v>
   <v>      -0.00349475       0.00464369      -0.00031648 </v>
   <v>      -0.00349475      -0.00464369       0.00031648 </v>
   <v>       0.00401373       0.00572289       0.00133097 </v>
   <v>       0.00401373      -0.00572289      -0.00133097 </v>
   <v>      -0.00401373       0.00572289      -0.00133097 </v>
   <v>      -0.00401373      -0.00572289       0.00133097 </v>
   <v>      -0.00425567      -0.00386272       0.01171553 </v>
   <v>      -0.00425567       0.00386272      -0.01171553 </v>
   <v>       0.00425567      -0.00386272      -0.01171553 </v>
   <v>       0.00425567       0.00386272       0.01171553 </v>
   <v>       0.00126652       0.00325982       0.01128448 </v>
   <v>       0.00126652      -0.00325982      -0.01128448 </v>
   <v>      -0.00126652       0.00325982      -0.01128448 </v>
   <v>      -0.00126652      -0.00325982       0.01128448 </v>
   <v>       0.00536063      -0.00195509      -0.00369530 </v>
   <v>       0.00536063       0.00195509       0.00369530 </v>
   <v>      -0.00536063      -0.00195509       0.00369530 </v>
   <v>       0.00147740      -0.00285738      -0.00113726 </v>
   <v>      -0.00145629       0.00038362       0.00019045 </v>
   <v>      -0.00145629      -0.00038362      -0.00019045 </v>
   <v>       0.00145629       0.00038362      -0.00019045 </v>
   <v>       0.00145629      -0.00038362       0.00019045 </v>
   <v>       0.00132577      -0.00025891      -0.00242996 </v>
   <v>       0.00132577       0.00025891       0.00242996 </v>
   <v>      -0.00132577      -0.00025891       0.00242996 </v>
   <v>      -0.00132577       0.00025891      -0.00242996 </v>
   <v>      -0.00562110       0.00328932      -0.00621266 </v>
   <v>      -0.00562110      -0.00328932       0.00621266 </v>
   <v>       0.00562110       0.00328932       0.00621266 </v>
   <v>       0.00562110      -0.00328932      -0.00621266 </v>
   <v>      -0.00077544       0.00242131      -0.00770032 </v>
   <v>      -0.00077544      -0.00242131       0.00770032 </v>
   <v>       0.00077544       0.00242131       0.00770032 </v>
   <v>       0.00077544      -0.00242131      -0.00770032 </v>
   <v>       0.00084173       0.00424276      -0.00656846 </v>
   <v>       0.00084173      -0.00424276       0.00656846 </v>
   <v>      -0.00084173       0.00424276       0.00656846 </v>
   <v>      -0.00084173      -0.00424276      -0.00656846 </v>
   <v>       0.00382472      -0.00268482      -0.01199602 </v>
   <v>       0.00382472       0.00268482       0.01199602 </v>
   <v>      -0.00382472      -0.00268482       0.01199602 </v>
   <v>      -0.00382472       0.00268482      -0.01199602 </v>
  </varray>
  <varray name="stress" >
   <v>       0.31369276       0.00000000       0.00000000 </v>
   <v>       0.00000000       0.31542491       0.00000000 </v>
   <v>       0.00000000       0.00000000       0.23648431 </v>
  </varray>
  <energy>
   <i name="e_fr_energy">   -569.54243389 </i>
   <i name="e_wo_entrp">   -569.54243389 </i>
   <i name="e_0_energy">      0.00000000 </i>
  </energy>
  <time name="totalsc">  319.21  319.31</time>
 </calculation>
 <calculation>
  <scstep>
   <time name="dav">   67.00   67.00</time>
   <time name="total">   71.81   71.80</time>
   <energy>
    <i name="alphaZ">    444.11124727 </i>
    <i name="ewald"> -12006.27841867 </i>
    <i name="hartreedc"> -10905.82128637 </i>
    <i name="XCdc">   1201.60798006 </i>
    <i name="pawpsdc">  16266.73887840 </i>
    <i name="pawaedc"> -15952.18952900 </i>
    <i name="eentropy">      0.00000000 </i>
    <i name="bandstr">  -2844.48705256 </i>
    <i name="atom">  23226.77578591 </i>
    <i name="e_fr_energy">   -569.54239497 </i>
    <i name="e_wo_entrp">   -569.54239497 </i>
    <i name="e_0_energy">   -569.54239497 </i>
   </energy>
  </scstep>
  <scstep>
   <time name="diag">   11.58   11.58</time>
   <time name="diis">   43.21   43.22</time>
   <time name="orth">    1.48    1.48</time>
   <time name="total">   61.07   61.10</time>
   <energy>
    <i name="e_fr_energy">   -569.54251936 </i>
    <i name="e_wo_entrp">   -569.54251936 </i>
    <i name="e_0_energy">   -569.54251936 </i>
   </energy>
  </scstep>
  <scstep>
   <time name="diag">   11.54   11.54</time>
   <time name="diis">   42.35   42.38</time>
   <time name="orth">    1.48    1.48</time>
   <time name="total">   60.18   60.19</time>
   <energy>
    <i name="e_fr_energy">   -569.54251113 </i>
    <i name="e_wo_entrp">   -569.54251113 </i>
    <i name="e_0_energy">   -569.54251113 </i>
   </energy>
  </scstep>
  <scstep>
   <time name="diag">   11.56   11.56</time>
   <time name="diis">   42.34   42.34</time>
   <time name="orth">    1.48    1.48</time>
   <time name="total">   60.18   60.19</time>
   <energy>
    <i name="e_fr_energy">   -569.54250888 </i>
    <i name="e_wo_entrp">   -569.54250888 </i>
    <i name="e_0_energy">   -569.54250888 </i>
   </energy>
  </scstep>
  <scstep>
   <time name="diag">   11.56   11.56</time>
   <time name="diis">   30.03   30.03</time>
   <time name="orth">    1.47    1.47</time>
   <time name="total">   44.25   44.27</time>
   <energy>
    <i name="alphaZ">    444.11124727 </i>
    <i name="ewald"> -12006.27841867 </i>
    <i name="hartreedc"> -10905.75377717 </i>
    <i name="XCdc">   1201.60361869 </i>
    <i name="pawpsdc">  16266.90950519 </i>
    <i name="pawaedc"> -15952.36132669 </i>
    <i name="eentropy">      0.00000000 </i>
    <i name="bandstr">  -2844.54914263 </i>
    <i name="atom">  23226.77578591 </i>
    <i name="e_fr_energy">   -569.54250810 </i>
    <i name="e_wo_entrp">   -569.54250810 </i>
    <i name="e_0_energy">   -569.54250810 </i>
   </energy>
  </scstep>
  <structure>
   <crystal>
    <varray name="basis" >
     <v>       5.03779528       0.00000000       0.00000000 </v>
     <v>       0.00000000       8.42948251       0.00000000 </v>
     <v>       0.00000000       0.00000000      26.74288184 </v>
    </varray>
    <i name="volume">   1135.66341311 </i>
    <varray name="rec_basis" >
     <v>       0.19849953       0.00000000       0.00000000 </v>
     <v>       0.00000000       0.11863124       0.00000000 </v>
     <v>       0.00000000       0.00000000       0.03739313 </v>
    </varray>
   </crystal>
   <varray name="positions" >
    <v>       0.23761156       0.79650087       0.49072956 </v>
    <v>       0.73761156       0.70349913       0.50927044 </v>
    <v>       0.76238844       0.29650087       0.00927044 </v>
    <v>       0.26238844       0.20349913       0.99072956 </v>
    <v>       0.06629965       0.26312231       0.48610712 </v>
    <v>       0.56629965       0.23687769       0.51389288 </v>
    <v>       0.93370035       0.76312231       0.01389288 </v>
    <v>       0.43370035       0.73687769       0.98610712 </v>
    <v>       0.74345076       0.80906568       0.65868760 </v>
    <v>       0.24345076       0.69093432       0.34131240 </v>
    <v>       0.25654924       0.30906568       0.84131240 </v>
    <v>       0.75654924       0.19093432       0.15868760 </v>
    <v>       0.56673171       0.27475699       0.65201161 </v>
    <v>       0.06673171       0.22524301       0.34798839 </v>
    <v>       0.43326829       0.77475699       0.84798839 </v>
    <v>       0.93326829       0.72524301       0.15201161 </v>
    <v>       0.24377961       0.71424119       0.67573671 </v>
    <v>       0.56376800       0.77164522       0.75130572 </v>
    <v>       0.74377961       0.78575881       0.32426329 </v>
    <v>       0.25622039       0.28575881       0.17573671 </v>
    <v>       0.06657590       0.24704272       0.67958003 </v>
    <v>       0.56657590       0.25295728       0.32041997 </v>
    <v>       0.93342410       0.74704272       0.82041997 </v>
    <v>       0.43342410       0.75295728       0.17958003 </v>
    <v>       0.10782189       0.99101415       0.19528268 </v>
    <v>       0.60782189       0.50898585       0.80471732 </v>
    <v>       0.89217811       0.49101415       0.30471732 </v>
    <v>       0.39217811       0.00898585       0.69528268 </v>
    <v>       0.60786382       0.48463429       0.13846925 </v>
    <v>       0.10786382       0.01536571       0.86153075 </v>
    <v>       0.39213618       0.98463429       0.36153075 </v>
    <v>       0.89213618       0.51536571       0.63846925 </v>
    <v>       0.60863646       0.00284256       0.02882949 </v>
    <v>       0.10863646       0.49715744       0.97117051 </v>
    <v>       0.39136354       0.50284256       0.47117051 </v>
    <v>       0.89136354      -0.00284256       0.52882949 </v>
    <v>       0.55540082       0.74194283       0.08281747 </v>
    <v>       0.05540082       0.75805717       0.91718253 </v>
    <v>       0.44459918       0.24194283       0.41718253 </v>
    <v>       0.94459918       0.25805717       0.58281747 </v>
    <v>       0.42690698       0.24395774       0.08346348 </v>
    <v>       0.92690698       0.25604226       0.91653652 </v>
    <v>       0.57309302       0.74395774       0.41653652 </v>
    <v>       0.07309302       0.75604226       0.58346348 </v>
    <v>       0.93623200       0.22835478       0.25130572 </v>
    <v>       0.43623200       0.27164522       0.74869428 </v>
    <v>       0.06376800       0.72835478       0.24869428 </v>
    <v>       0.75622039       0.21424119       0.82426329 </v>
    <v>       0.48650785       0.82572827       0.69520868 </v>
    <v>      -0.01349215       0.67427173       0.30479132 </v>
    <v>       0.51349215       0.32572827       0.80479132 </v>
    <v>       0.01349215       0.17427173       0.19520868 </v>
    <v>       0.36970587       0.20028984       0.69404867 </v>
    <v>       0.86970587       0.29971016       0.30595133 </v>
    <v>       0.63029413       0.70028984       0.80595133 </v>
    <v>       0.13029413       0.79971016       0.19404867 </v>
    <v>      -0.01607525       0.81362270       0.52796709 </v>
    <v>       0.48392475       0.68637730       0.47203291 </v>
    <v>       0.01607525       0.31362270       0.97203291 </v>
    <v>       0.51607525       0.18637730       0.02796709 </v>
    <v>       0.86917411       0.18857591       0.52807012 </v>
    <v>       0.36917411       0.31142409       0.47192988 </v>
    <v>       0.13082589       0.68857591       0.97192988 </v>
    <v>       0.63082589       0.81142409       0.02807012 </v>
    <v>      -0.01274794       0.69846126       0.63917367 </v>
    <v>       0.48725206       0.80153874       0.36082633 </v>
    <v>       0.01274794       0.19846126       0.86082633 </v>
    <v>       0.51274794       0.30153874       0.13917367 </v>
    <v>       0.86963082       0.32393565       0.63803615 </v>
    <v>       0.36963082       0.17606435       0.36196385 </v>
    <v>       0.13036918       0.82393565       0.86196385 </v>
    <v>       0.63036918       0.67606435       0.13803615 </v>
   </varray>
  </structure>
  <varray name="forces" >
   <v>      -0.00247749       0.00358627      -0.00005070 </v>
   <v>      -0.00247749      -0.00358627       0.00005070 </v>
   <v>       0.00247749       0.00358627       0.00005070 </v>
   <v>       0.00247749      -0.00358627      -0.00005070 </v>
   <v>       0.00060067      -0.00335278      -0.00284619 </v>
   <v>       0.00060067       0.00335278       0.00284619 </v>
   <v>      -0.00060067      -0.00335278       0.00284619 </v>
   <v>      -0.00060067       0.00335278      -0.00284619 </v>
   <v>      -0.00176045       0.00240162       0.00331625 </v>
   <v>      -0.00176045      -0.00240162      -0.00331625 </v>
   <v>       0.00176045       0.00240162      -0.00331625 </v>
   <v>       0.00176045      -0.00240162       0.00331625 </v>
   <v>       0.00009304      -0.00243838      -0.00372532 </v>
   <v>       0.00009304       0.00243838       0.00372532 </v>
   <v>      -0.00009304      -0.00243838       0.00372532 </v>
   <v>      -0.00009304       0.00243838      -0.00372532 </v>
   <v>      -0.00206252      -0.00272646       0.00119391 </v>
   <v>      -0.00531943       0.00295005      -0.00574244 </v>
   <v>      -0.00206252       0.00272646      -0.00119391 </v>
   <v>       0.00206252       0.00272646       0.00119391 </v>
   <v>      -0.00091452       0.00203862       0.00232830 </v>
   <v>      -0.00091452      -0.00203862      -0.00232830 </v>
   <v>       0.00091452       0.00203862      -0.00232830 </v>
   <v>       0.00091452      -0.00203862       0.00232830 </v>
   <v>       0.00067243       0.01139724       0.00132594 </v>
   <v>       0.00067243      -0.01139724      -0.00132594 </v>
   <v>      -0.00067243       0.01139724      -0.00132594 </v>
   <v>      -0.00067243      -0.01139724       0.00132594 </v>
   <v>       0.00362090       0.00733705       0.00079318 </v>
   <v>       0.00362090      -0.00733705      -0.00079318 </v>
   <v>      -0.00362090       0.00733705      -0.00079318 </v>
   <v>      -0.00362090      -0.00733705       0.00079318 </v>
   <v>       0.00301353       0.00491636       0.00223393 </v>
   <v>       0.00301353      -0.00491636      -0.00223393 </v>
   <v>      -0.00301353       0.00491636      -0.00223393 </v>
   <v>      -0.00301353      -0.00491636       0.00223393 </v>
   <v>      -0.00382575      -0.00305299       0.01131762 </v>
   <v>      -0.00382575       0.00305299      -0.01131762 </v>
   <v>       0.00382575      -0.00305299      -0.01131762 </v>
   <v>       0.00382575       0.00305299       0.01131762 </v>
   <v>       0.00001001       0.00313992       0.01264361 </v>
   <v>       0.00001001      -0.00313992      -0.01264361 </v>
   <v>      -0.00001001       0.00313992      -0.01264361 </v>
   <v>      -0.00001001      -0.00313992       0.01264361 </v>
   <v>       0.00531943      -0.00295005      -0.00574244 </v>
   <v>       0.00531943       0.00295005       0.00574244 </v>
   <v>      -0.00531943      -0.00295005       0.00574244 </v>
   <v>       0.00206252      -0.00272646      -0.00119391 </v>
   <v>      -0.00189168      -0.00124337       0.00261475 </v>
   <v>      -0.00189168       0.00124337      -0.00261475 </v>
   <v>       0.00189168      -0.00124337      -0.00261475 </v>
   <v>       0.00189168       0.00124337       0.00261475 </v>
   <v>       0.00071327       0.00247809       0.00076971 </v>
   <v>       0.00071327      -0.00247809      -0.00076971 </v>
   <v>      -0.00071327       0.00247809      -0.00076971 </v>
   <v>      -0.00071327      -0.00247809       0.00076971 </v>
   <v>      -0.00712043       0.00324006      -0.00599603 </v>
   <v>      -0.00712043      -0.00324006       0.00599603 </v>
   <v>       0.00712043       0.00324006       0.00599603 </v>
   <v>       0.00712043      -0.00324006      -0.00599603 </v>
   <v>      -0.00117709       0.00257996      -0.00981393 </v>
   <v>      -0.00117709      -0.00257996       0.00981393 </v>
   <v>       0.00117709       0.00257996       0.00981393 </v>
   <v>       0.00117709      -0.00257996      -0.00981393 </v>
   <v>       0.00187577       0.00448322      -0.00800737 </v>
   <v>       0.00187577      -0.00448322       0.00800737 </v>
   <v>      -0.00187577       0.00448322       0.00800737 </v>
   <v>      -0.00187577      -0.00448322      -0.00800737 </v>
   <v>       0.00419788      -0.00021395      -0.01266545 </v>
   <v>       0.00419788       0.00021395       0.01266545 </v>
   <v>      -0.00419788      -0.00021395       0.01266545 </v>
   <v>      -0.00419788       0.00021395      -0.01266545 </v>
  </varray>
  <varray name="stress" >
   <v>       0.40907583       0.00000000       0.00000000 </v>
   <v>       0.00000000       0.36060235       0.00000000 </v>
   <v>       0.00000000       0.00000000       0.24863907 </v>
  </varray>
  <energy>
   <i name="e_fr_energy">   -569.54250810 </i>
   <i name="e_wo_entrp">   -569.54250810 </i>
   <i name="e_0_energy">      0.00000000 </i>
  </energy>
  <time name="totalsc">  383.91  384.01</time>
 </calculation>
