   68   68  200    2
  0.9214071E+01  0.7684954E-09  0.8658239E-09  0.9432536E-09  0.5000000E-15
   1.0000000000000000E-004
  CAR
 RubyVaspy :: B O Zn Tb
  384   16  259

  0.1250000E+00  0.1250000E+00  0.1250000E+00  0.6250000E-01
   1      -18.969767    -18.969767
   2      -18.918290    -18.918290
   3      -18.705335    -18.705335
   4      -18.684408    -18.684408
   5      -18.629452    -18.629452
   6      -18.563236    -18.563236
   7      -18.519496    -18.519496
   8      -18.516295    -18.516295
   9      -18.476535    -18.476535
  10      -18.464085    -18.464085
  11      -18.325241    -18.325241
  12      -18.214568    -18.214568
  13      -18.080438    -18.080438
  14      -17.855795    -17.855795
  15      -17.736483    -17.736483
  16      -17.661547    -17.661547
  17      -17.458906    -17.458906
  18      -17.328064    -17.328064
  19      -17.135374    -17.135374
  20      -17.074429    -17.074429
  21      -16.947215    -16.947215
  22      -16.725565    -16.725565
  23      -16.623697    -16.623697
  24      -16.587788    -16.587788
  25      -16.512888    -16.512888
  26      -16.350049    -16.350049
  27      -16.294767    -16.294767
  28      -16.215172    -16.215172
  29      -16.154731    -16.154731
  30      -16.138046    -16.138046
  31      -16.091659    -16.091659
  32      -16.018473    -16.018473
  33      -15.709696    -15.709696
  34      -15.682656    -15.682656
  35      -15.652247    -15.652247
  36      -15.556908    -15.556908
  37      -15.489345    -15.489346
  38      -15.454027    -15.454027
  39      -15.436842    -15.436842
  40      -15.412596    -15.412596
  41      -15.398034    -15.398034
  42      -15.309812    -15.309812
  43      -15.291215    -15.291215
  44      -15.230301    -15.230302
  45      -15.204104    -15.204104
  46      -15.188286    -15.188286
  47      -15.151704    -15.151704
  48      -15.144589    -15.144589
  49      -15.136394    -15.136394
  50      -15.095038    -15.095038
  51      -14.608944    -14.608944
  52      -14.595977    -14.595977
  53       -6.881744     -6.881744
  54       -6.492943     -6.492943
  55       -6.353332     -6.353332
  56       -6.244847     -6.244847
  57       -5.973320     -5.973320
  58       -5.884680     -5.884680
  59       -5.796226     -5.796226
  60       -5.794116     -5.794116
  61       -5.332913     -5.332913
  62       -5.290122     -5.290122
  63       -5.252430     -5.252430
  64       -5.096247     -5.096247
  65       -4.823338     -4.823338
  66       -4.790205     -4.790205
  67       -4.741250     -4.741250
  68       -4.714686     -4.714686
  69       -4.555429     -4.555429
  70       -4.447746     -4.447746
  71       -4.414718     -4.414718
  72       -4.395748     -4.395748
  73       -4.273711     -4.273711
  74       -4.240458     -4.240458
  75       -4.120930     -4.120930
  76       -3.829910     -3.829910
  77       -3.770552     -3.770552
  78       -3.751489     -3.751489
  79       -3.732646     -3.732646
  80       -3.721053     -3.721053
  81       -3.584403     -3.584403
  82       -3.508490     -3.508490
  83       -3.428929     -3.428929
  84       -3.343038     -3.343038
  85       -3.234728     -3.234728
  86       -3.195141     -3.195141
  87       -3.112580     -3.112580
  88       -3.075694     -3.075694
  89       -2.964821     -2.964821
  90       -2.902306     -2.902306
  91       -2.862830     -2.862830
  92       -2.801380     -2.801380
  93       -2.724788     -2.724788
  94       -2.701008     -2.701008
  95       -2.642179     -2.642179
  96       -2.590972     -2.590972
  97       -2.532051     -2.532051
  98       -2.522708     -2.522708
  99       -2.425653     -2.425653
 100       -2.401487     -2.401487
 101       -2.311208     -2.311208
 102       -2.263278     -2.263278
 103       -2.209825     -2.209825
 104       -2.180908     -2.180908
 105       -2.167763     -2.167763
 106       -2.083982     -2.083982
 107       -2.074311     -2.074311
 108       -2.041311     -2.041311
 109       -2.014561     -2.014561
 110       -2.007291     -2.007291
 111       -1.941909     -1.941909
 112       -1.892915     -1.892915
 113       -1.886241     -1.886241
 114       -1.848115     -1.848115
 115       -1.827514     -1.827514
 116       -1.801584     -1.801584
 117       -1.774689     -1.774689
 118       -1.751455     -1.751455
 119       -1.663908     -1.663908
 120       -1.589827     -1.589827
 121       -1.578626     -1.578626
 122       -1.537456     -1.537456
 123       -1.364274     -1.364274
 124       -1.339059     -1.339059
 125       -1.278059     -1.278059
 126       -1.218318     -1.218318
 127       -1.198251     -1.198251
 128       -1.189959     -1.189959
 129       -1.082526     -1.082526
 130       -0.891985     -0.891985
 131       -0.881117     -0.881117
 132       -0.807905     -0.807905
 133       -0.758040     -0.758040
 134       -0.608601     -0.608601
 135       -0.562939     -0.562939
 136       -0.501484     -0.501484
 137       -0.389784     -0.389784
 138       -0.337971     -0.337971
 139       -0.299041     -0.299041
 140       -0.197561     -0.197561
 141       -0.137274     -0.137274
 142       -0.115656     -0.115656
 143       -0.070869     -0.070869
 144       -0.004593     -0.004593
 145        0.029230      0.029230
 146        0.045766      0.045766
 147        0.129709      0.129709
 148        0.142159      0.142159
 149        0.195382      0.195382
 150        0.254366      0.254366
 151        0.277706      0.277706
 152        0.320466      0.320466
 153        0.403650      0.403650
 154        0.427004      0.427004
 155        0.489624      0.489624
 156        0.526328      0.526328
 157        0.531273      0.531273
 158        0.546341      0.546341
 159        0.593164      0.593164
 160        0.612963      0.612963
 161        0.635537      0.635537
 162        0.680882      0.680882
 163        0.764870      0.764870
 164        0.788636      0.788636
 165        0.818412      0.818412
 166        0.871721      0.871721
 167        0.906197      0.906197
 168        0.959677      0.959677
 169        1.024082      1.024082
 170        1.090574      1.090574
 171        1.109994      1.109994
 172        1.143632      1.143632
 173        1.200277      1.200277
 174        1.221052      1.221052
 175        1.272051      1.272051
 176        1.308624      1.308624
 177        1.353467      1.353466
 178        1.392034      1.392034
 179        1.453275      1.453275
 180        1.486981      1.486981
 181        1.575289      1.575289
 182        1.587343      1.587343
 183        1.622470      1.622470
 184        1.644909      1.644909
 185        1.652564      1.652564
 186        1.771133      1.771132
 187        1.797472      1.797472
 188        1.810729      1.810729
 189        1.863727      1.863727
 190        1.886695      1.886695
 191        1.926005      1.926005
 192        1.969074      1.969074
 193        7.267345      7.267345
 194        7.921149      7.921149
 195        8.081145      8.081145
 196        8.164554      8.164554
 197        8.406483      8.406483
 198        8.651417      8.651417
 199        8.666455      8.666455
 200        8.796849      8.796849
 201        8.858923      8.858923
 202        8.910544      8.910544
 203        8.992540      8.992539
 204        9.005648      9.005648
 205        9.035021      9.035021
 206        9.080202      9.080202
 207        9.196790      9.196790
 208        9.308683      9.308683
 209        9.435223      9.435223
 210        9.500762      9.500761
 211        9.567502      9.567502
 212        9.596541      9.596541
 213        9.653265      9.653265
 214        9.683500      9.683500
 215        9.817988      9.817988
 216        9.851486      9.851486
 217        9.959957      9.959957
 218        9.981382      9.981381
 219       10.099498     10.099498
 220       10.300191     10.300191
 221       10.434125     10.434125
 222       10.486000     10.486000
 223       10.597495     10.597495
 224       10.660675     10.660675
 225       10.827449     10.827449
 226       10.920553     10.920553
 227       11.056039     11.056039
 228       11.316058     11.316058
 229       11.424673     11.424673
 230       11.446861     11.446861
 231       11.620229     11.620229
 232       11.919672     11.919672
 233       12.153565     12.153565
 234       12.333599     12.333599
 235       12.364915     12.364915
 236       12.414821     12.414821
 237       12.572940     12.572939
 238       12.652893     12.652893
 239       12.779120     12.779120
 240       12.834166     12.834166
 241       12.837037     12.837037
 242       13.029542     13.029542
 243       13.076273     13.076273
 244       13.227033     13.227033
 245       13.353287     13.353287
 246       13.409141     13.409140
 247       13.438852     13.438852
 248       13.597187     13.597186
 249       13.660000     13.660000
 250       13.675586     13.675586
 251       13.749508     13.749507
 252       13.773495     13.773495
 253       13.958572     13.958572
 254       14.013700     14.013700
 255       14.137930     14.137930
 256       14.192018     14.192019
 257       14.248532     14.248531
 258       14.289114     14.289389
 259       14.300212     14.300825

  0.3750000E+00  0.1250000E+00  0.1250000E+00  0.6250000E-01
   1      -18.877643    -18.877643
   2      -18.822918    -18.822918
   3      -18.732629    -18.732629
   4      -18.719908    -18.719908
   5      -18.646724    -18.646724
   6      -18.584226    -18.584226
   7      -18.555245    -18.555245
   8      -18.530885    -18.530885
   9      -18.460087    -18.460087
  10      -18.436474    -18.436474
  11      -18.362374    -18.362374
  12      -18.316276    -18.316276
  13      -18.009761    -18.009761
  14      -17.852743    -17.852743
  15      -17.819466    -17.819466
  16      -17.764598    -17.764598
  17      -17.395217    -17.395217
  18      -17.273887    -17.273887
  19      -17.178774    -17.178774
  20      -17.089846    -17.089846
  21      -16.887038    -16.887038
  22      -16.816547    -16.816547
  23      -16.535771    -16.535771
  24      -16.529258    -16.529258
  25      -16.477719    -16.477719
  26      -16.403423    -16.403423
  27      -16.278001    -16.278001
  28      -16.209366    -16.209366
  29      -16.168308    -16.168308
  30      -16.141615    -16.141615
  31      -16.101326    -16.101326
  32      -16.058074    -16.058074
  33      -15.715195    -15.715195
  34      -15.701305    -15.701305
  35      -15.602014    -15.602014
  36      -15.553183    -15.553184
  37      -15.484833    -15.484833
  38      -15.468656    -15.468656
  39      -15.421001    -15.421001
  40      -15.382897    -15.382897
  41      -15.307019    -15.307019
  42      -15.302743    -15.302743
  43      -15.266642    -15.266642
  44      -15.230652    -15.230652
  45      -15.218001    -15.218001
  46      -15.207282    -15.207282
  47      -15.198997    -15.198997
  48      -15.178469    -15.178469
  49      -14.986703    -14.986703
  50      -14.955118    -14.955119
  51      -14.767598    -14.767598
  52      -14.742295    -14.742295
  53       -6.794840     -6.794840
  54       -6.663442     -6.663442
  55       -6.331953     -6.331953
  56       -6.303584     -6.303584
  57       -5.908690     -5.908690
  58       -5.883957     -5.883957
  59       -5.850654     -5.850654
  60       -5.779163     -5.779163
  61       -5.361527     -5.361527
  62       -5.343455     -5.343456
  63       -5.144875     -5.144875
  64       -5.070787     -5.070787
  65       -4.797137     -4.797137
  66       -4.772500     -4.772500
  67       -4.736889     -4.736889
  68       -4.711450     -4.711450
  69       -4.559792     -4.559792
  70       -4.489925     -4.489925
  71       -4.387568     -4.387568
  72       -4.321323     -4.321323
  73       -4.287328     -4.287328
  74       -4.242894     -4.242894
  75       -4.204876     -4.204877
  76       -3.946144     -3.946144
  77       -3.875506     -3.875506
  78       -3.833135     -3.833135
  79       -3.745900     -3.745901
  80       -3.706882     -3.706882
  81       -3.550040     -3.550040
  82       -3.494061     -3.494061
  83       -3.411098     -3.411098
  84       -3.344670     -3.344670
  85       -3.170439     -3.170439
  86       -3.141893     -3.141893
  87       -3.112647     -3.112647
  88       -2.987995     -2.987995
  89       -2.965463     -2.965463
  90       -2.917645     -2.917645
  91       -2.842607     -2.842607
  92       -2.799373     -2.799373
  93       -2.701919     -2.701919
  94       -2.690452     -2.690452
  95       -2.580277     -2.580277
  96       -2.505587     -2.505588
  97       -2.487913     -2.487913
  98       -2.448648     -2.448648
  99       -2.358745     -2.358745
 100       -2.315008     -2.315008
 101       -2.283906     -2.283906
 102       -2.242542     -2.242542
 103       -2.194943     -2.194943
 104       -2.163570     -2.163570
 105       -2.133256     -2.133256
 106       -2.072063     -2.072063
 107       -2.053290     -2.053291
 108       -2.013279     -2.013279
 109       -2.002662     -2.002662
 110       -1.978041     -1.978041
 111       -1.951017     -1.951017
 112       -1.892540     -1.892540
 113       -1.884552     -1.884552
 114       -1.863159     -1.863159
 115       -1.858051     -1.858051
 116       -1.798785     -1.798785
 117       -1.705042     -1.705042
 118       -1.647709     -1.647709
 119       -1.637417     -1.637417
 120       -1.618294     -1.618294
 121       -1.574156     -1.574156
 122       -1.563449     -1.563449
 123       -1.509634     -1.509634
 124       -1.459174     -1.459174
 125       -1.373917     -1.373917
 126       -1.324067     -1.324067
 127       -1.253063     -1.253063
 128       -1.078019     -1.078019
 129       -1.069923     -1.069923
 130       -1.026087     -1.026087
 131       -0.893494     -0.893494
 132       -0.856715     -0.856715
 133       -0.734501     -0.734501
 134       -0.714774     -0.714774
 135       -0.634882     -0.634882
 136       -0.514200     -0.514200
 137       -0.405206     -0.405207
 138       -0.359150     -0.359150
 139       -0.241814     -0.241814
 140       -0.205887     -0.205887
 141       -0.156525     -0.156525
 142       -0.152918     -0.152918
 143       -0.038909     -0.038909
 144       -0.004384     -0.004384
 145        0.016248      0.016248
 146        0.075102      0.075102
 147        0.093039      0.093039
 148        0.174783      0.174783
 149        0.194874      0.194874
 150        0.221954      0.221954
 151        0.256273      0.256273
 152        0.305552      0.305552
 153        0.341132      0.341132
 154        0.425804      0.425804
 155        0.467438      0.467438
 156        0.493285      0.493285
 157        0.521196      0.521196
 158        0.567802      0.567802
 159        0.619362      0.619362
 160        0.639667      0.639667
 161        0.663174      0.663174
 162        0.673669      0.673669
 163        0.763857      0.763857
 164        0.782844      0.782844
 165        0.820485      0.820485
 166        0.890285      0.890285
 167        0.920899      0.920899
 168        0.958545      0.958545
 169        0.983495      0.983495
 170        1.064474      1.064474
 171        1.120392      1.120392
 172        1.126948      1.126948
 173        1.192730      1.192730
 174        1.238524      1.238524
 175        1.272499      1.272499
 176        1.346221      1.346221
 177        1.374715      1.374715
 178        1.396883      1.396883
 179        1.458082      1.458082
 180        1.471711      1.471711
 181        1.495512      1.495512
 182        1.551582      1.551582
 183        1.588866      1.588866
 184        1.626593      1.626593
 185        1.688524      1.688524
 186        1.776502      1.776502
 187        1.813150      1.813150
 188        1.838038      1.838038
 189        1.895619      1.895619
 190        1.940938      1.940938
 191        1.961854      1.961854
 192        2.005124      2.005124
 193        7.581153      7.581153
 194        7.852190      7.852190
 195        8.032187      8.032187
 196        8.098284      8.098284
 197        8.577331      8.577331
 198        8.648943      8.648943
 199        8.736590      8.736590
 200        8.790430      8.790430
 201        8.864456      8.864456
 202        8.890066      8.890066
 203        8.946298      8.946298
 204        8.973422      8.973422
 205        9.126742      9.126742
 206        9.146901      9.146901
 207        9.209489      9.209489
 208        9.237373      9.237373
 209        9.444774      9.444774
 210        9.517166      9.517165
 211        9.582663      9.582663
 212        9.629206      9.629206
 213        9.720744      9.720744
 214        9.761902      9.761902
 215        9.787151      9.787150
 216        9.819296      9.819296
 217        9.940863      9.940863
 218       10.012381     10.012381
 219       10.107902     10.107902
 220       10.129030     10.129030
 221       10.277731     10.277731
 222       10.345352     10.345352
 223       10.457545     10.457545
 224       10.526537     10.526537
 225       10.859543     10.859543
 226       10.881108     10.881108
 227       11.067108     11.067108
 228       11.220470     11.220470
 229       11.424908     11.424908
 230       11.480451     11.480451
 231       11.768411     11.768411
 232       11.908808     11.908808
 233       12.053638     12.053637
 234       12.168108     12.168108
 235       12.517585     12.517585
 236       12.585002     12.585002
 237       12.644523     12.644523
 238       12.717151     12.717150
 239       12.789687     12.789687
 240       12.842380     12.842380
 241       12.874253     12.874253
 242       12.930961     12.930961
 243       13.082500     13.082500
 244       13.193305     13.193305
 245       13.321965     13.321965
 246       13.385012     13.385012
 247       13.549112     13.549112
 248       13.553743     13.553743
 249       13.643396     13.643396
 250       13.731884     13.731883
 251       13.784781     13.784781
 252       13.880387     13.880387
 253       13.927791     13.927791
 254       14.066083     14.066082
 255       14.185465     14.185463
 256       14.222035     14.222045
 257       14.262570     14.262571
 258       14.274856     14.274941
 259       14.297697     14.299919

  0.1250000E+00  0.3750000E+00  0.1250000E+00  0.6250000E-01
   1      -18.951924    -18.951924
   2      -18.940715    -18.940715
   3      -18.741321    -18.741321
   4      -18.716105    -18.716105
   5      -18.622062    -18.622062
   6      -18.548542    -18.548542
   7      -18.514022    -18.514022
   8      -18.504526    -18.504526
   9      -18.488182    -18.488182
  10      -18.460914    -18.460914
  11      -18.251575    -18.251575
  12      -18.232156    -18.232157
  13      -17.972755    -17.972755
  14      -17.808449    -17.808449
  15      -17.780250    -17.780250
  16      -17.757155    -17.757155
  17      -17.495526    -17.495526
  18      -17.341915    -17.341915
  19      -17.174666    -17.174666
  20      -17.092589    -17.092589
  21      -16.903545    -16.903545
  22      -16.781412    -16.781412
  23      -16.618807    -16.618807
  24      -16.565698    -16.565698
  25      -16.414663    -16.414663
  26      -16.387059    -16.387059
  27      -16.317387    -16.317387
  28      -16.265310    -16.265310
  29      -16.148097    -16.148098
  30      -16.067157    -16.067157
  31      -16.044578    -16.044578
  32      -15.997251    -15.997251
  33      -15.716881    -15.716881
  34      -15.711605    -15.711605
  35      -15.623060    -15.623060
  36      -15.582795    -15.582795
  37      -15.507412    -15.507412
  38      -15.483127    -15.483127
  39      -15.442963    -15.442963
  40      -15.432699    -15.432699
  41      -15.401925    -15.401925
  42      -15.309681    -15.309681
  43      -15.284047    -15.284048
  44      -15.238471    -15.238471
  45      -15.196915    -15.196915
  46      -15.185573    -15.185573
  47      -15.148288    -15.148288
  48      -15.134655    -15.134655
  49      -15.112411    -15.112411
  50      -15.100722    -15.100722
  51      -14.609207    -14.609207
  52      -14.598697    -14.598697
  53       -6.812499     -6.812499
  54       -6.551595     -6.551595
  55       -6.401197     -6.401197
  56       -6.261800     -6.261800
  57       -5.942135     -5.942135
  58       -5.857545     -5.857545
  59       -5.812406     -5.812406
  60       -5.779876     -5.779876
  61       -5.392235     -5.392236
  62       -5.346081     -5.346082
  63       -5.143175     -5.143175
  64       -5.079717     -5.079717
  65       -4.842219     -4.842220
  66       -4.798195     -4.798195
  67       -4.766901     -4.766901
  68       -4.726527     -4.726527
  69       -4.544129     -4.544129
  70       -4.447834     -4.447834
  71       -4.413187     -4.413187
  72       -4.372239     -4.372239
  73       -4.291179     -4.291179
  74       -4.213809     -4.213809
  75       -4.020917     -4.020917
  76       -3.853008     -3.853008
  77       -3.793901     -3.793901
  78       -3.764803     -3.764803
  79       -3.749386     -3.749386
  80       -3.707734     -3.707734
  81       -3.626618     -3.626618
  82       -3.586292     -3.586292
  83       -3.348407     -3.348407
  84       -3.314295     -3.314295
  85       -3.226457     -3.226457
  86       -3.159660     -3.159660
  87       -3.093345     -3.093345
  88       -2.993032     -2.993032
  89       -2.977204     -2.977204
  90       -2.931051     -2.931051
  91       -2.844392     -2.844392
  92       -2.805900     -2.805901
  93       -2.725583     -2.725583
  94       -2.702225     -2.702225
  95       -2.670660     -2.670660
  96       -2.587157     -2.587157
  97       -2.556701     -2.556701
  98       -2.499647     -2.499647
  99       -2.445320     -2.445320
 100       -2.395972     -2.395972
 101       -2.331480     -2.331480
 102       -2.285545     -2.285545
 103       -2.225415     -2.225415
 104       -2.181587     -2.181587
 105       -2.150044     -2.150044
 106       -2.121478     -2.121478
 107       -2.041378     -2.041378
 108       -2.027360     -2.027360
 109       -2.003073     -2.003073
 110       -1.983448     -1.983448
 111       -1.933872     -1.933872
 112       -1.919182     -1.919182
 113       -1.900927     -1.900927
 114       -1.870661     -1.870661
 115       -1.833363     -1.833363
 116       -1.809970     -1.809970
 117       -1.795217     -1.795217
 118       -1.765983     -1.765984
 119       -1.714010     -1.714010
 120       -1.652391     -1.652392
 121       -1.606157     -1.606158
 122       -1.556473     -1.556473
 123       -1.426615     -1.426615
 124       -1.383099     -1.383099
 125       -1.318348     -1.318348
 126       -1.302295     -1.302295
 127       -1.193674     -1.193674
 128       -1.100094     -1.100094
 129       -1.066798     -1.066798
 130       -0.952978     -0.952978
 131       -0.794714     -0.794714
 132       -0.775583     -0.775583
 133       -0.681109     -0.681109
 134       -0.572926     -0.572926
 135       -0.504887     -0.504887
 136       -0.384717     -0.384717
 137       -0.335301     -0.335301
 138       -0.258233     -0.258233
 139       -0.228158     -0.228158
 140       -0.179907     -0.179907
 141       -0.151128     -0.151128
 142       -0.106669     -0.106669
 143       -0.063625     -0.063625
 144       -0.014204     -0.014204
 145        0.013173      0.013173
 146        0.073043      0.073043
 147        0.136606      0.136606
 148        0.160292      0.160292
 149        0.226806      0.226806
 150        0.256782      0.256782
 151        0.264071      0.264071
 152        0.306607      0.306607
 153        0.363317      0.363317
 154        0.405216      0.405216
 155        0.423686      0.423686
 156        0.476599      0.476599
 157        0.519513      0.519513
 158        0.537907      0.537907
 159        0.575094      0.575094
 160        0.639885      0.639885
 161        0.668727      0.668727
 162        0.691045      0.691045
 163        0.725939      0.725939
 164        0.779178      0.779178
 165        0.799515      0.799515
 166        0.870787      0.870787
 167        0.887911      0.887911
 168        0.905997      0.905997
 169        0.959824      0.959824
 170        0.984311      0.984311
 171        1.089874      1.089874
 172        1.164205      1.164205
 173        1.190233      1.190233
 174        1.254647      1.254647
 175        1.300107      1.300107
 176        1.306089      1.306089
 177        1.364429      1.364429
 178        1.380761      1.380761
 179        1.440576      1.440576
 180        1.460702      1.460702
 181        1.531143      1.531143
 182        1.581230      1.581230
 183        1.628062      1.628062
 184        1.662352      1.662352
 185        1.710788      1.710788
 186        1.768923      1.768923
 187        1.816536      1.816535
 188        1.820927      1.820927
 189        1.868950      1.868950
 190        1.919255      1.919255
 191        1.940934      1.940934
 192        1.966767      1.966767
 193        7.575946      7.575946
 194        7.812186      7.812186
 195        8.139849      8.139849
 196        8.160403      8.160403
 197        8.409512      8.409512
 198        8.478271      8.478271
 199        8.641828      8.641828
 200        8.748353      8.748352
 201        8.827365      8.827365
 202        8.891503      8.891503
 203        8.967418      8.967418
 204        8.995202      8.995201
 205        9.071505      9.071505
 206        9.143893      9.143893
 207        9.210715      9.210715
 208        9.224526      9.224526
 209        9.482328      9.482328
 210        9.506107      9.506107
 211        9.614724      9.614724
 212        9.642568      9.642568
 213        9.662521      9.662521
 214        9.696005      9.696005
 215        9.698682      9.698682
 216        9.881062      9.881062
 217        9.905561      9.905561
 218        9.940014      9.940014
 219       10.063523     10.063523
 220       10.159222     10.159222
 221       10.435499     10.435499
 222       10.502568     10.502568
 223       10.584636     10.584636
 224       10.614217     10.614217
 225       10.633210     10.633210
 226       10.854684     10.854684
 227       11.246114     11.246114
 228       11.348342     11.348342
 229       11.428611     11.428611
 230       11.576775     11.576775
 231       11.736448     11.736448
 232       11.922818     11.922818
 233       12.270834     12.270834
 234       12.291411     12.291411
 235       12.448455     12.448455
 236       12.475484     12.475484
 237       12.584306     12.584306
 238       12.626047     12.626047
 239       12.691443     12.691443
 240       12.750838     12.750838
 241       12.860468     12.860468
 242       12.956300     12.956300
 243       13.048723     13.048723
 244       13.158541     13.158540
 245       13.248524     13.248524
 246       13.329717     13.329717
 247       13.400534     13.400534
 248       13.527925     13.527925
 249       13.702050     13.702050
 250       13.751159     13.751159
 251       13.808081     13.808081
 252       13.928151     13.928151
 253       14.031639     14.031639
 254       14.094489     14.094489
 255       14.148591     14.148592
 256       14.166106     14.166107
 257       14.202420     14.202421
 258       14.292031     14.291767
 259       14.302419     14.302709

  0.3750000E+00  0.3750000E+00  0.1250000E+00  0.6250000E-01
   1      -18.863602    -18.863602
   2      -18.848890    -18.848890
   3      -18.755336    -18.755337
   4      -18.727200    -18.727200
   5      -18.617433    -18.617433
   6      -18.613069    -18.613069
   7      -18.544311    -18.544311
   8      -18.535749    -18.535749
   9      -18.458136    -18.458136
  10      -18.441794    -18.441794
  11      -18.336999    -18.336999
  12      -18.325000    -18.325000
  13      -17.903972    -17.903972
  14      -17.814603    -17.814603
  15      -17.791539    -17.791539
  16      -17.772537    -17.772537
  17      -17.481590    -17.481590
  18      -17.344278    -17.344278
  19      -17.231375    -17.231375
  20      -17.142360    -17.142360
  21      -16.846779    -16.846779
  22      -16.785632    -16.785632
  23      -16.588055    -16.588055
  24      -16.559376    -16.559376
  25      -16.409547    -16.409547
  26      -16.393490    -16.393490
  27      -16.250541    -16.250541
  28      -16.209510    -16.209510
  29      -16.160160    -16.160160
  30      -16.123037    -16.123037
  31      -16.051310    -16.051310
  32      -16.028810    -16.028810
  33      -15.719773    -15.719773
  34      -15.706517    -15.706517
  35      -15.627421    -15.627421
  36      -15.594296    -15.594296
  37      -15.492995    -15.492995
  38      -15.468342    -15.468342
  39      -15.421553    -15.421553
  40      -15.386992    -15.386992
  41      -15.312727    -15.312727
  42      -15.296074    -15.296074
  43      -15.267054    -15.267054
  44      -15.237050    -15.237050
  45      -15.226552    -15.226552
  46      -15.211693    -15.211693
  47      -15.185853    -15.185853
  48      -15.164480    -15.164480
  49      -14.978100    -14.978100
  50      -14.962439    -14.962439
  51      -14.762450    -14.762450
  52      -14.749610    -14.749610
  53       -6.739985     -6.739985
  54       -6.637915     -6.637915
  55       -6.383765     -6.383765
  56       -6.353455     -6.353455
  57       -5.897974     -5.897975
  58       -5.856266     -5.856266
  59       -5.822090     -5.822090
  60       -5.750474     -5.750474
  61       -5.406158     -5.406158
  62       -5.377265     -5.377265
  63       -5.196496     -5.196496
  64       -5.124775     -5.124775
  65       -4.824935     -4.824935
  66       -4.759810     -4.759811
  67       -4.739500     -4.739500
  68       -4.725675     -4.725675