unknown system                          
   1.00000000000000     
     2.314306    2.314306   -0.000000
     0.000000    2.314306    2.314306
     2.314306    0.000000    2.314306
   Li   O 
     2     1
Direct
  0.750000  0.750000  0.750000
  0.250000  0.250000  0.250000
  0.000000  0.000000  0.000000
 
   48   48   48
  196.85      194.33      186.50      172.95      153.83      130.48      105.36      81.313      60.684      44.596    
  32.859      24.382      18.157      13.663      10.430      8.0757      6.3292      5.0126      4.0139      3.2615    
  2.7061      2.3110      2.0486      1.8991      1.8506      1.8991      2.0486      2.3110      2.7061      3.2615    
  4.0139      5.0126      6.3292      8.0757      10.430      13.663      18.157      24.382      32.859      44.596    
  60.684      81.313      105.36      130.48      153.83      172.95      186.50      194.33      194.33      189.15    
  178.41      161.98      140.61      116.25      91.649      69.446      51.355      37.783      28.000      20.822    
  15.592      11.827      9.1018      7.0967      5.5941      4.4549      3.5918      2.9468      2.4782      2.1542    
  1.9512      1.8536      1.8535      1.9511      2.1541      2.4782      2.9470      3.5920      4.4550      5.5940    
  7.0965      9.1017      11.827      15.592      20.822      28.000      37.783      51.355      69.445      91.650    
  116.25      140.61      161.98      178.42      189.15      194.33      186.50      178.41      164.71      145.83    
  123.22      99.263      76.620      57.355      42.386      31.430      23.424      17.518      13.238      10.142    
  7.8756      6.1851      4.9052      3.9315      3.1965      2.6532      2.2665      2.0094      1.8627      1.8150    
  1.8625      2.0091      2.2664      2.6534      3.1968      3.9318      4.9053      6.1849      7.8753      10.142    
  13.238      17.518      23.425      31.430      42.386      57.354      76.620      99.264      123.22      145.83    
  164.72      178.42      186.50      189.15      172.95      161.98      145.83      125.61      103.29      81.320    
  61.861      46.179      34.405      25.763      19.314      14.587      11.151      8.6371      6.7667      5.3518    
  4.2717      3.4495      2.8331      2.3842      2.0732      1.8780      1.7840      1.7838      1.8777      2.0729    
  2.3841      2.8334      3.4499      4.2719      5.3517      6.7663      8.6367      11.151      14.587      19.315    
  25.763      34.405      46.178      61.860      81.320      103.29      125.61      145.83      161.98      172.95    
  178.42      178.42      153.83      140.61      123.22      103.29      82.956      64.279      48.684      36.620    
  27.626      20.838      15.781      12.071      9.3448      7.3150      5.7785      4.6016      3.6988      3.0136    
  2.5051      2.1417      1.8994      1.7609      1.7157      1.7606      1.8991      2.1416      2.5052      3.0139    
  3.6992      4.6017      5.7783      7.3146      9.3445      12.071      15.781      20.838      27.627      36.620    
  48.683      64.278      82.955      103.29      123.22      140.61      153.83      161.98      164.72      161.98    
  130.48      116.25      99.263      81.320      64.279      49.561      37.806      28.831      21.948      16.724    
  12.838      9.9575      7.8029      6.1668      4.9082      3.9358      3.1892      2.6261      2.2138      1.9268    
  1.7460      1.6587      1.6586      1.7458      1.9266      2.2138      2.6262      3.1895      3.9359      4.9082    
  6.1665      7.8026      9.9574      12.838      16.724      21.948      28.831      37.806      49.559      64.277    
  81.319      99.262      116.25      130.48      140.61      145.83      145.83      140.61      105.36      91.649    
  76.620      61.861      48.684      37.806      29.248      22.534      17.329      13.390      10.433      8.2018    
  6.4967      5.1773      4.1501      3.3531      2.7430      2.2872      1.9595      1.7397      1.6135      1.5723    
  1.6134      1.7396      1.9594      2.2872      2.7431      3.3531      4.1501      5.1773      6.4966      8.2017    
  10.433      13.391      17.330      22.534      29.248      37.806      48.683      61.860      76.618      91.647    
  105.35      116.25      123.22      125.61      123.22      116.25      81.313      69.446      57.355      46.179    
  36.620      28.831      22.534      17.538      13.680      10.736      8.4852      6.7491      5.3948      4.3312    
  3.4973      2.8505      2.3587      1.9959      1.7415      1.5802      1.5020      1.5020      1.5803      1.7416    
  1.9959      2.3586      2.8505      3.4973      4.3312      5.3949      6.7492      8.4851      10.735      13.680    
  17.539      22.534      28.832      36.621      46.179      57.354      69.444      81.311      91.647      99.262    
  103.29      103.29      99.264      91.650      60.684      51.355      42.386      34.405      27.626      21.948    
  17.329      13.680      10.839      8.6325      6.9079      5.5478      4.4690      3.6141      2.9427      2.4241    
  2.0333      1.7498      1.5580      1.4470      1.4108      1.4472      1.5582      1.7499      2.0333      2.4240    
  2.9425      3.6141      4.4692      5.5480      6.9080      8.6324      10.839      13.680      17.330      21.949    
  27.628      34.407      42.387      51.356      60.684      69.444      76.618      81.319      82.955      81.320    
  76.620      69.445      44.596      37.783      31.430      25.763      20.838      16.724      13.390      10.736    
  8.6325      6.9621      5.6270      4.5553      3.6964      3.0136      2.4787      2.0681      1.7621      1.5452    
  1.4062      1.3384      1.3384      1.4064      1.5453      1.7621      2.0680      2.4785      3.0135      3.6964    
  4.5556      5.6272      6.9621      8.6323      10.735      13.390      16.724      20.839      25.764      31.432    
  37.785      44.598      51.356      57.354      61.860      64.277      64.278      61.860      57.354      51.355    
  32.859      28.000      23.424      19.314      15.781      12.838      10.433      8.4852      6.9079      5.6270    
  4.5848      3.7389      3.0583      2.5180      2.0964      1.7752      1.5393      1.3776      1.2831      1.2520    
  1.2832      1.3777      1.5393      1.7752      2.0963      2.5178      3.0583      3.7390      4.5850      5.6271    
  6.9078      8.4848      10.433      12.837      15.781      19.315      23.426      28.002      32.862      37.785    
  42.387      46.179      48.683      49.559      48.683      46.178      42.386      37.783      24.382      20.822    
  17.518      14.587      12.071      9.9575      8.2018      6.7491      5.5478      4.5553      3.7389      3.0736    
  2.5386      2.1150      1.7860      1.5376      1.3589      1.2429      1.1858      1.1858      1.2430      1.3590    
  1.5376      1.7860      2.1148      2.5385      3.0736      3.7390      4.5555      5.5479      6.7490      8.2013    
  9.9567      12.070      14.586      17.518      20.822      24.383      28.002      31.432      34.407      36.621    
  37.806      37.806      36.620      34.405      31.430      28.000      18.157      15.592      13.238      11.151    
  9.3448      7.8029      6.4967      5.3948      4.4690      3.6964      3.0583      2.5386      2.1214      1.7921    
  1.5377      1.3479      1.2160      1.1379      1.1121      1.1380      1.2160      1.3480      1.5377      1.7921    
  2.1214      2.5385      3.0583      3.6964      4.4691      5.3948      6.4966      7.8024      9.3439      11.150    
  13.237      15.591      18.156      20.822      23.426      25.764      27.628      28.832      29.248      28.831    
  27.627      25.763      23.425      20.822      13.663      11.827      10.142      8.6371      7.3150      6.1668    
  5.1773      4.3312      3.6141      3.0136      2.5180      2.1150      1.7921      1.5379      1.3430      1.2006    
  1.1070      1.0604      1.0604      1.1070      1.2006      1.3430      1.5380      1.7922      2.1150      2.5179    
  3.0135      3.6141      4.3314      5.1776      6.1670      7.3148      8.6363      10.141      11.825      13.661    
  15.591      17.518      19.315      20.839      21.949      22.534      22.534      21.948      20.838      19.315    
  17.518      15.592      10.430      9.1018      7.8756      6.7667      5.7785      4.9082      4.1501      3.4973    
  2.9427      2.4787      2.0964      1.7860      1.5377      1.3430      1.1956      1.0918      1.0298      1.0092    
  1.0298      1.0917      1.1956      1.3431      1.5378      1.7861      2.0964      2.4786      2.9426      3.4974    
  4.1505      4.9089      5.7792      6.7670      7.8753      9.1007      10.428      11.825      13.237      14.586    
  15.781      16.724      17.330      17.539      17.330      16.724      15.781      14.587      13.238      11.827    
  8.0757      7.0967      6.1851      5.3518      4.6016      3.9358      3.3531      2.8505      2.4241      2.0681    
  1.7752      1.5376      1.3479      1.2006      1.0918      1.0197     0.98364     0.98358      1.0196      1.0917    
  1.2006      1.3481      1.5378      1.7753      2.0681      2.4239      2.8504      3.3533      3.9364      4.6027    
  5.3530      6.1861      7.0972      8.0754      9.1007      10.141      11.150      12.070      12.837      13.390    
  13.680      13.680      13.391      12.838      12.071      11.151      10.142      9.1017      6.3292      5.5941    
  4.9052      4.2717      3.6988      3.1892      2.7430      2.3587      2.0333      1.7621      1.5393      1.3589    
  1.2160      1.1070      1.0298     0.98364     0.96819     0.98352      1.0297      1.1069      1.2161      1.3591    
  1.5394      1.7622      2.0332      2.3584      2.7429      3.1894      3.6996      4.2729      4.9068      5.5956    
  6.3304      7.0972      7.8753      8.6363      9.3439      9.9567      10.433      10.735      10.839      10.735    
  10.433      9.9574      9.3445      8.6367      7.8753      7.0965      5.0126      4.4549      3.9315      3.4495    
  3.0136      2.6261      2.2872      1.9959      1.7498      1.5452      1.3776      1.2429      1.1379      1.0604    
  1.0092     0.98358     0.98352      1.0090      1.0603      1.1379      1.2430      1.3777      1.5453      1.7498    
  1.9956      2.2868      2.6257      3.0135      3.4499      3.9324      4.4563      5.0142      5.5956      6.1861    
  6.7670      7.3148      7.8024      8.2013      8.4848      8.6323      8.6324      8.4851      8.2017      7.8026    
  7.3146      6.7663      6.1849      5.5940      4.0139      3.5918      3.1965      2.8331      2.5051      2.2138    
  1.9595      1.7415      1.5580      1.4062      1.2831      1.1858      1.1121      1.0604      1.0298      1.0196    
  1.0297      1.0603      1.1120      1.1857      1.2831      1.4063      1.5580      1.7414      1.9591      2.2132    
  2.5043      2.8325      3.1962      3.5921      4.0147      4.4563      4.9068      5.3530      5.7792      6.1670    
  6.4966      6.7490      6.9078      6.9621      6.9080      6.7492      6.4966      6.1665      5.7783      5.3517    
  4.9053      4.4550      3.2615      2.9468      2.6532      2.3842      2.1417      1.9268      1.7397      1.5802    
  1.4470      1.3384      1.2520      1.1858      1.1380      1.1070      1.0917      1.0917      1.1069      1.1379    
  1.1857      1.2519      1.3384      1.4471      1.5802      1.7396      1.9264      2.1410      2.3831      2.6520    
  2.9458      3.2609      3.5921      3.9324      4.2729      4.6027      4.9089      5.1776      5.3948      5.5479    
  5.6271      5.6272      5.5480      5.3949      5.1773      4.9082      4.6017      4.2719      3.9318      3.5920    
  2.7061      2.4782      2.2665      2.0732      1.8994      1.7460      1.6135      1.5020      1.4108      1.3384    
  1.2832      1.2430      1.2160      1.2006      1.1956      1.2006      1.2161      1.2430      1.2831      1.3384    
  1.4108      1.5021      1.6137      1.7461      1.8992      2.0724      2.2653      2.4766      2.7045      2.9458    
  3.1962      3.4499      3.6996      3.9364      4.1505      4.3314      4.4691      4.5555      4.5850      4.5556    
  4.4692      4.3312      4.1501      3.9359      3.6992      3.4499      3.1968      2.9470      2.3110      2.1542    
  2.0094      1.8780      1.7609      1.6587      1.5723      1.5020      1.4472      1.4064      1.3777      1.3590    
  1.3480      1.3430      1.3431      1.3481      1.3591      1.3777      1.4063      1.4471      1.5021      1.5726    
  1.6592      1.7613      1.8782      2.0090      2.1532      2.3096      2.4766      2.6520      2.8325      3.0135    
  3.1894      3.3533      3.4974      3.6141      3.6964      3.7390      3.7390      3.6964      3.6141      3.4973    
  3.3531      3.1895      3.0139      2.8334      2.6534      2.4782      2.0486      1.9512      1.8627      1.7840    
  1.7157      1.6586      1.6134      1.5803      1.5582      1.5453      1.5393      1.5376      1.5377      1.5380    
  1.5378      1.5378      1.5394      1.5453      1.5580      1.5802      1.6137      1.6592      1.7166      1.7850    
  1.8635      1.9515      2.0483      2.1532      2.2653      2.3831      2.5043      2.6257      2.7429      2.8504    
  2.9426      3.0135      3.0583      3.0736      3.0583      3.0135      2.9425      2.8505      2.7431      2.6262    
  2.5052      2.3841      2.2664      2.1541      1.8991      1.8536      1.8150      1.7838      1.7606      1.7458    
  1.7396      1.7416      1.7499      1.7621      1.7752      1.7860      1.7921      1.7922      1.7861      1.7753    
  1.7622      1.7498      1.7414      1.7396      1.7461      1.7613      1.7850      1.8163      1.8549      1.9000    
  1.9515      2.0090      2.0724      2.1410      2.2132      2.2868      2.3584      2.4239      2.4786      2.5179    
  2.5385      2.5385      2.5178      2.4785      2.4240      2.3586      2.2872      2.2138      2.1416      2.0729    
  2.0091      1.9511      1.8506      1.8535      1.8625      1.8777      1.8991      1.9266      1.9594      1.9959    
  2.0333      2.0680      2.0963      2.1148      2.1214      2.1150      2.0964      2.0681      2.0332      1.9956    
  1.9591      1.9264      1.8992      1.8782      1.8635      1.8549      1.8521      1.8549      1.8635      1.8782    
  1.8992      1.9264      1.9591      1.9956      2.0332      2.0681      2.0964      2.1150      2.1214      2.1148    
  2.0963      2.0680      2.0333      1.9959      1.9594      1.9266      1.8991      1.8777      1.8625      1.8535    
  1.8991      1.9511      2.0091      2.0729      2.1416      2.2138      2.2872      2.3586      2.4240      2.4785    
  2.5178      2.5385      2.5385      2.5179      2.4786      2.4239      2.3584      2.2868      2.2132      2.1410    
  2.0724      2.0090      1.9515      1.9000      1.8549      1.8163      1.7850      1.7613      1.7461      1.7396    
  1.7414      1.7498      1.7622      1.7753      1.7861      1.7922      1.7921      1.7860      1.7752      1.7621    
  1.7499      1.7416      1.7396      1.7458      1.7606      1.7838      1.8150      1.8536      2.0486      2.1541    
  2.2664      2.3841      2.5052      2.6262      2.7431      2.8505      2.9425      3.0135      3.0583      3.0736    
  3.0583      3.0135      2.9426      2.8504      2.7429      2.6257      2.5043      2.3831      2.2653      2.1532    
  2.0483      1.9515      1.8635      1.7850      1.7166      1.6592      1.6137      1.5802      1.5580      1.5453    
  1.5394      1.5378      1.5378      1.5380      1.5377      1.5376      1.5393      1.5453      1.5582      1.5803    
  1.6134      1.6586      1.7157      1.7840      1.8627      1.9512      2.3110      2.4782      2.6534      2.8334    
  3.0139      3.1895      3.3531      3.4973      3.6141      3.6964      3.7390      3.7390      3.6964      3.6141    
  3.4974      3.3533      3.1894      3.0135      2.8325      2.6520      2.4766      2.3096      2.1532      2.0090    
  1.8782      1.7613      1.6592      1.5726      1.5021      1.4471      1.4063      1.3777      1.3591      1.3481    
  1.3431      1.3430      1.3480      1.3590      1.3777      1.4064      1.4472      1.5020      1.5723      1.6587    
  1.7609      1.8780      2.0094      2.1542      2.7061      2.9470      3.1968      3.4499      3.6992      3.9359    
  4.1501      4.3312      4.4692      4.5556      4.5850      4.5555      4.4691      4.3314      4.1505      3.9364    
  3.6996      3.4499      3.1962      2.9458      2.7045      2.4766      2.2653      2.0724      1.8992      1.7461    
  1.6137      1.5021      1.4108      1.3384      1.2831      1.2430      1.2161      1.2006      1.1956      1.2006    
  1.2160      1.2430      1.2832      1.3384      1.4108      1.5020      1.6135      1.7460      1.8994      2.0732    
  2.2665      2.4782      3.2615      3.5920      3.9318      4.2719      4.6017      4.9082      5.1773      5.3949    
  5.5480      5.6272      5.6271      5.5479      5.3948      5.1776      4.9089      4.6027      4.2729      3.9324    
  3.5921      3.2609      2.9458      2.6520      2.3831      2.1410      1.9264      1.7396      1.5802      1.4471    
  1.3384      1.2519      1.1857      1.1379      1.1069      1.0917      1.0917      1.1070      1.1380      1.1858    
  1.2520      1.3384      1.4470      1.5802      1.7397      1.9268      2.1417      2.3842      2.6532      2.9468    
  4.0139      4.4550      4.9053      5.3517      5.7783      6.1665      6.4966      6.7492      6.9080      6.9621    
  6.9078      6.7490      6.4966      6.1670      5.7792      5.3530      4.9068      4.4563      4.0147      3.5921    
  3.1962      2.8325      2.5043      2.2132      1.9591      1.7414      1.5580      1.4063      1.2831      1.1857    
  1.1120      1.0603      1.0297      1.0196      1.0298      1.0604      1.1121      1.1858      1.2831      1.4062    
  1.5580      1.7415      1.9595      2.2138      2.5051      2.8331      3.1965      3.5918      5.0126      5.5940    
  6.1849      6.7663      7.3146      7.8026      8.2017      8.4851      8.6324      8.6323      8.4848      8.2013    
  7.8024      7.3148      6.7670      6.1861      5.5956      5.0142      4.4563      3.9324      3.4499      3.0135    
  2.6257      2.2868      1.9956      1.7498      1.5453      1.3777      1.2430      1.1379      1.0603      1.0090    
 0.98352     0.98358      1.0092      1.0604      1.1379      1.2429      1.3776      1.5452      1.7498      1.9959    
  2.2872      2.6261      3.0136      3.4495      3.9315      4.4549      6.3292      7.0965      7.8753      8.6367    
  9.3445      9.9574      10.433      10.735      10.839      10.735      10.433      9.9567      9.3439      8.6363    
  7.8753      7.0972      6.3304      5.5956      4.9068      4.2729      3.6996      3.1894      2.7429      2.3584    
  2.0332      1.7622      1.5394      1.3591      1.2161      1.1069      1.0297     0.98352     0.96819     0.98364    
  1.0298      1.1070      1.2160      1.3589      1.5393      1.7621      2.0333      2.3587      2.7430      3.1892    
  3.6988      4.2717      4.9052      5.5941      8.0757      9.1017      10.142      11.151      12.071      12.838    
  13.391      13.680      13.680      13.390      12.837      12.070      11.150      10.141      9.1007      8.0754    
  7.0972      6.1861      5.3530      4.6027      3.9364      3.3533      2.8504      2.4239      2.0681      1.7753    
  1.5378      1.3481      1.2006      1.0917      1.0196     0.98358     0.98364      1.0197      1.0918      1.2006    
  1.3479      1.5376      1.7752      2.0681      2.4241      2.8505      3.3531      3.9358      4.6016      5.3518    
  6.1851      7.0967      10.430      11.827      13.238      14.587      15.781      16.724      17.330      17.539    
  17.330      16.724      15.781      14.586      13.237      11.825      10.428      9.1007      7.8753      6.7670    
  5.7792      4.9089      4.1505      3.4974      2.9426      2.4786      2.0964      1.7861      1.5378      1.3431    
  1.1956      1.0917      1.0298      1.0092      1.0298      1.0918      1.1956      1.3430      1.5377      1.7860    
  2.0964      2.4787      2.9427      3.4973      4.1501      4.9082      5.7785      6.7667      7.8756      9.1018    
  13.663      15.592      17.518      19.315      20.838      21.948      22.534      22.534      21.949      20.839    
  19.315      17.518      15.591      13.661      11.825      10.141      8.6363      7.3148      6.1670      5.1776    
  4.3314      3.6141      3.0135      2.5179      2.1150      1.7922      1.5380      1.3430      1.2006      1.1070    
  1.0604      1.0604      1.1070      1.2006      1.3430      1.5379      1.7921      2.1150      2.5180      3.0136    
  3.6141      4.3312      5.1773      6.1668      7.3150      8.6371      10.142      11.827      18.157      20.822    
  23.425      25.763      27.627      28.831      29.248      28.832      27.628      25.764      23.426      20.822    
  18.156      15.591      13.237      11.150      9.3439      7.8024      6.4966      5.3948      4.4691      3.6964    
  3.0583      2.5385      2.1214      1.7921      1.5377      1.3480      1.2160      1.1380      1.1121      1.1379    
  1.2160      1.3479      1.5377      1.7921      2.1214      2.5386      3.0583      3.6964      4.4690      5.3948    
  6.4967      7.8029      9.3448      11.151      13.238      15.592      24.382      28.000      31.430      34.405    
  36.620      37.806      37.806      36.621      34.407      31.432      28.002      24.383      20.822      17.518    
  14.586      12.070      9.9567      8.2013      6.7490      5.5479      4.5555      3.7390      3.0736      2.5385    
  2.1148      1.7860      1.5376      1.3590      1.2430      1.1858      1.1858      1.2429      1.3589      1.5376    
  1.7860      2.1150      2.5386      3.0736      3.7389      4.5553      5.5478      6.7491      8.2018      9.9575    
  12.071      14.587      17.518      20.822      32.859      37.783      42.386      46.178      48.683      49.559    
  48.683      46.179      42.387      37.785      32.862      28.002      23.426      19.315      15.781      12.837    
  10.433      8.4848      6.9078      5.6271      4.5850      3.7390      3.0583      2.5178      2.0963      1.7752    
  1.5393      1.3777      1.2832      1.2520      1.2831      1.3776      1.5393      1.7752      2.0964      2.5180    
  3.0583      3.7389      4.5848      5.6270      6.9079      8.4852      10.433      12.838      15.781      19.314    
  23.424      28.000      44.596      51.355      57.354      61.860      64.278      64.277      61.860      57.354    
  51.356      44.598      37.785      31.432      25.764      20.839      16.724      13.390      10.735      8.6323    
  6.9621      5.6272      4.5556      3.6964      3.0135      2.4785      2.0680      1.7621      1.5453      1.4064    
  1.3384      1.3384      1.4062      1.5452      1.7621      2.0681      2.4787      3.0136      3.6964      4.5553    
  5.6270      6.9621      8.6325      10.736      13.390      16.724      20.838      25.763      31.430      37.783    
  60.684      69.445      76.620      81.320      82.955      81.319      76.618      69.444      60.684      51.356    
  42.387      34.407      27.628      21.949      17.330      13.680      10.839      8.6324      6.9080      5.5480    
  4.4692      3.6141      2.9425      2.4240      2.0333      1.7499      1.5582      1.4472      1.4108      1.4470    
  1.5580      1.7498      2.0333      2.4241      2.9427      3.6141      4.4690      5.5478      6.9079      8.6325    
  10.839      13.680      17.329      21.948      27.626      34.405      42.386      51.355      81.313      91.650    
  99.264      103.29      103.29      99.262      91.647      81.311      69.444      57.354      46.179      36.621    
  28.832      22.534      17.539      13.680      10.735      8.4851      6.7492      5.3949      4.3312      3.4973    
  2.8505      2.3586      1.9959      1.7416      1.5803      1.5020      1.5020      1.5802      1.7415      1.9959    
  2.3587      2.8505      3.4973      4.3312      5.3948      6.7491      8.4852      10.736      13.680      17.538    
  22.534      28.831      36.620      46.179      57.355      69.446      105.36      116.25      123.22      125.61    
  123.22      116.25      105.35      91.647      76.618      61.860      48.683      37.806      29.248      22.534    
  17.330      13.391      10.433      8.2017      6.4966      5.1773      4.1501      3.3531      2.7431      2.2872    
  1.9594      1.7396      1.6134      1.5723      1.6135      1.7397      1.9595      2.2872      2.7430      3.3531    
  4.1501      5.1773      6.4967      8.2018      10.433      13.390      17.329      22.534      29.248      37.806    
  48.684      61.861      76.620      91.649      130.48      140.61      145.83      145.83      140.61      130.48    
  116.25      99.262      81.319      64.277      49.559      37.806      28.831      21.948      16.724      12.838    
  9.9574      7.8026      6.1665      4.9082      3.9359      3.1895      2.6262      2.2138      1.9266      1.7458    
  1.6586      1.6587      1.7460      1.9268      2.2138      2.6261      3.1892      3.9358      4.9082      6.1668    
  7.8029      9.9575      12.838      16.724      21.948      28.831      37.806      49.561      64.279      81.320    
  99.263      116.25      153.83      161.98      164.72      161.98      153.83      140.61      123.22      103.29    
  82.955      64.278      48.683      36.620      27.627      20.838      15.781      12.071      9.3445      7.3146    
  5.7783      4.6017      3.6992      3.0139      2.5052      2.1416      1.8991      1.7606      1.7157      1.7609    
  1.8994      2.1417      2.5051      3.0136      3.6988      4.6016      5.7785      7.3150      9.3448      12.071    
  15.781      20.838      27.626      36.620      48.684      64.279      82.956      103.29      123.22      140.61    
  172.95      178.42      178.42      172.95      161.98      145.83      125.61      103.29      81.320      61.860    
  46.178      34.405      25.763      19.315      14.587      11.151      8.6367      6.7663      5.3517      4.2719    
  3.4499      2.8334      2.3841      2.0729      1.8777      1.7838      1.7840      1.8780      2.0732      2.3842    
  2.8331      3.4495      4.2717      5.3518      6.7667      8.6371      11.151      14.587      19.314      25.763    
  34.405      46.179      61.861      81.320      103.29      125.61      145.83      161.98      186.50      189.15    
  186.50      178.42      164.72      145.83      123.22      99.264      76.620      57.354      42.386      31.430    
  23.425      17.518      13.238      10.142      7.8753      6.1849      4.9053      3.9318      3.1968      2.6534    
  2.2664      2.0091      1.8625      1.8150      1.8627      2.0094      2.2665      2.6532      3.1965      3.9315    
  4.9052      6.1851      7.8756      10.142      13.238      17.518      23.424      31.430      42.386      57.355    
  76.620      99.263      123.22      145.83      164.71      178.41      194.33      194.33      189.15      178.42    
  161.98      140.61      116.25      91.650      69.445      51.355      37.783      28.000      20.822      15.592    
  11.827      9.1017      7.0965      5.5940      4.4550      3.5920      2.9470      2.4782      2.1541      1.9511    
  1.8535      1.8536      1.9512      2.1542      2.4782      2.9468      3.5918      4.4549      5.5941      7.0967    
  9.1018      11.827      15.592      20.822      28.000      37.783      51.355      69.446      91.649      116.25    
  140.61      161.98      178.41      189.15      194.33      189.15      178.41      161.98      140.61      116.25    
  91.649      69.446      51.355      37.783      28.000      20.822      15.592      11.827      9.1018      7.0967    
  5.5941      4.4549      3.5918      2.9468      2.4782      2.1542      1.9512      1.8536      1.8535      1.9511    
  2.1541      2.4782      2.9470      3.5920      4.4550      5.5940      7.0965      9.1017      11.827      15.592    
  20.822      28.000      37.783      51.355      69.445      91.650      116.25      140.61      161.98      178.42    
  189.15      194.33      189.15      181.13      167.46      148.48      125.61      101.27      78.161      58.450    
  43.117      31.907      23.748      17.736      13.384      10.242      7.9450      6.2345      4.9410      3.9577    
  3.2158      2.6677      2.2776      2.0183      1.8703      1.8221      1.8700      2.0179      2.2774      2.6678    
  3.2162      3.9580      4.9410      6.2342      7.9446      10.242      13.385      17.736      23.748      31.907    
  43.116      58.449      78.161      101.27      125.62      148.49      167.47      181.13      189.15      191.76    
  178.41      167.46      151.15      130.49      107.48      84.640      64.293      47.843      35.501      26.501    
  19.817      14.925      11.381      8.7960      6.8791      5.4328      4.3308      3.4930      2.8654      2.4085    
  2.0921      1.8936      1.7979      1.7977      1.8932      2.0918      2.4085      2.8657      3.4935      4.3311    
  5.4326      6.8786      8.7955      11.381      14.926      19.817      26.501      35.501      47.842      64.292    
  84.640      107.48      130.50      151.16      167.47      178.42      183.83      183.83      161.98      148.48    