    3    3   99    2
  0.8164348E+01  0.3259762E-09  0.3259762E-09  0.3259762E-09  0.5000000E-15
  1.000000000000000E-004
  CAR 
 unknown system                          
    8   10   10
 
  0.1250000E+00  0.1250000E+00  0.1250000E+00  0.3125000E-01
   1      -14.514880    -14.514886
   2        0.415887      0.415884
   3        0.852140      0.852137
   4        0.852140      0.852137
   5        6.568552      6.568546
   6       12.851257     12.851260
   7       13.052781     13.052786
   8       13.052781     13.052786
   9       18.553360     18.553361
  10       18.553361     18.553361
 
  0.3750000E+00  0.1250000E+00  0.1250000E+00  0.9375000E-01
   1      -14.371903    -14.371909
   2       -0.936098     -0.936100
   3        0.266499      0.266496
   4        0.678265      0.678262
   5        8.084434      8.084427
   6       12.025386     12.025386
   7       13.504655     13.504656
   8       14.062889     14.062892
   9       15.983349     15.983351
  10       19.604481     19.604483
 
 -0.3750000E+00  0.1250000E+00  0.1250000E+00  0.9375000E-01
   1      -14.282070    -14.282076
   2       -1.675042     -1.675044
   3        0.300992      0.300990
   4        0.333869      0.333867
   5        9.276807      9.276800
   6       11.157702     11.157701
   7       13.233247     13.233248
   8       13.679228     13.679228
   9       18.062729     18.062732
  10       19.209894     19.209896
 
 -0.1250000E+00  0.1250000E+00  0.1250000E+00  0.9375000E-01
   1      -14.434218    -14.434224
   2       -0.268988     -0.268990
   3        0.483537      0.483534
   4        0.629684      0.629681
   5        7.232957      7.232951
   6       12.876304     12.876305
   7       13.196439     13.196442
   8       13.868118     13.868123
   9       15.802298     15.802299
  10       20.288848     20.288851
 
  0.3750000E+00  0.3750000E+00  0.1250000E+00  0.9375000E-01
   1      -14.320497    -14.320503
   2       -0.744769     -0.744772
   3        0.001928      0.001926
   4        0.094589      0.094587
   5        7.146996      7.146990
   6       13.137653     13.137652
   7       13.701323     13.701323
   8       14.806493     14.806492
   9       15.585817     15.585820
  10       22.308139     22.308308
 
 -0.3750000E+00  0.3750000E+00  0.1250000E+00  0.1875000E+00
   1      -14.232699    -14.232705
   2       -1.106611     -1.106613
   3       -0.425346     -0.425348
   4       -0.243822     -0.243824
   5        7.846801      7.846794
   6       11.806948     11.806948
   7       14.503440     14.503438
   8       15.016389     15.016386
   9       17.830161     17.830166
  10       20.086441     20.086446
 
 -0.1250000E+00  0.3750000E+00  0.1250000E+00  0.1875000E+00
   1      -14.288435    -14.288441
   2       -1.266766     -1.266768
   3       -0.092157     -0.092159
   4        0.290592      0.290590
   5        8.371319      8.371312
   6       11.606297     11.606298
   7       13.964206     13.964205
   8       14.419440     14.419440
   9       16.672609     16.672613
  10       20.200173     20.200176
 
 -0.3750000E+00 -0.3750000E+00  0.1250000E+00  0.9375000E-01
   1      -14.240633    -14.240639
   2       -0.783675     -0.783676
   3       -0.446169     -0.446171
   4       -0.314500     -0.314502
   5        6.485704      6.485699
   6       13.674690     13.674688
   7       14.256757     14.256756
   8       15.361620     15.361617
   9       16.696017     16.696022
  10       21.646283     21.646281
 
  0.3750000E+00  0.3750000E+00  0.3750000E+00  0.3125000E-01
   1      -14.331987    -14.331993
   2       -1.488917     -1.488919
   3        0.543312      0.543309
   4        0.543312      0.543309
   5        8.879569      8.879562
   6       11.772481     11.772479
   7       13.129784     13.129787
   8       13.129784     13.129787
   9       18.209924     18.209926
  10       18.209924     18.209926
 
 -0.3750000E+00  0.3750000E+00  0.3750000E+00  0.9375000E-01
   1      -14.252011    -14.252016
   2       -1.414518     -1.414519
   3       -0.280083     -0.280085
   4        0.175892      0.175889
   5        8.689053      8.689046
   6       11.297247     11.297246
   7       13.948186     13.948186
   8       14.563547     14.563545
   9       18.381329     18.381334
  10       18.635998     18.636002
