PROCAR lm decomposed
# of k-points:   10         # of bands:  10         # of ions:   3

 k-point    1 :    0.12500000 0.12500000 0.12500000     weight = 0.03125000

band   1 # energy  -14.51488018 # occ.  1.00000000
 
ion      s     py     pz     px    dxy    dyz    dz2    dxz    dx2    tot
  1  0.025  0.001  0.001  0.001  0.000  0.000  0.000  0.000  0.000  0.027
  2  0.025  0.001  0.001  0.001  0.000  0.000  0.000  0.000  0.000  0.027
  3  0.741  0.000  0.000  0.000  0.000  0.000  0.000  0.000  0.000  0.741
tot  0.792  0.001  0.001  0.001  0.000  0.000  0.000  0.000  0.000  0.795
 
band   2 # energy    0.41588724 # occ.  1.00000000
 
ion      s     py     pz     px    dxy    dyz    dz2    dxz    dx2    tot
  1  0.015  0.005  0.005  0.005  0.000  0.000  0.000  0.000  0.000  0.031
  2  0.015  0.005  0.005  0.005  0.000  0.000  0.000  0.000  0.000  0.031
  3  0.006  0.211  0.211  0.211  0.000  0.000  0.000  0.000  0.000  0.639
tot  0.036  0.222  0.222  0.222  0.000  0.000  0.000  0.000  0.000  0.702
 
band   3 # energy    0.85214043 # occ.  1.00000000
 
ion      s     py     pz     px    dxy    dyz    dz2    dxz    dx2    tot
  1  0.000  0.000  0.007  0.007  0.000  0.000  0.000  0.000  0.000  0.015
  2  0.000  0.000  0.007  0.007  0.000  0.000  0.000  0.000  0.000  0.015
  3  0.000  0.018  0.341  0.340  0.000  0.000  0.000  0.000  0.000  0.699
tot  0.000  0.019  0.356  0.355  0.000  0.000  0.000  0.000  0.000  0.730
 
band   4 # energy    0.85214043 # occ.  1.00000000
 
ion      s     py     pz     px    dxy    dyz    dz2    dxz    dx2    tot
  1  0.000  0.010  0.003  0.003  0.000  0.000  0.000  0.000  0.000  0.015
  2  0.000  0.010  0.003  0.003  0.000  0.000  0.000  0.000  0.000  0.015
  3  0.000  0.448  0.125  0.126  0.000  0.000  0.000  0.000  0.000  0.699
tot  0.000  0.467  0.131  0.132  0.000  0.000  0.000  0.000  0.000  0.730
 
band   5 # energy    6.56855250 # occ.  0.00000000
 
ion      s     py     pz     px    dxy    dyz    dz2    dxz    dx2    tot
  1  0.137  0.005  0.005  0.005  0.000  0.000  0.000  0.000  0.000  0.152
  2  0.137  0.005  0.005  0.005  0.000  0.000  0.000  0.000  0.000  0.152
  3  0.130  0.018  0.018  0.018  0.000  0.000  0.000  0.000  0.000  0.185
tot  0.404  0.028  0.028  0.028  0.000  0.000  0.000  0.000  0.000  0.489
 
band   6 # energy   12.85125653 # occ.  0.00000000
 
ion      s     py     pz     px    dxy    dyz    dz2    dxz    dx2    tot
  1  0.017  0.103  0.103  0.103  0.000  0.000  0.000  0.000  0.000  0.324
  2  0.017  0.103  0.103  0.103  0.000  0.000  0.000  0.000  0.000  0.324
  3  0.001  0.015  0.015  0.015  0.000  0.000  0.000  0.000  0.000  0.046
tot  0.034  0.220  0.220  0.220  0.000  0.000  0.000  0.000  0.000  0.695
 
band   7 # energy   13.05278105 # occ.  0.00000000
 
ion      s     py     pz     px    dxy    dyz    dz2    dxz    dx2    tot
  1  0.000  0.000  0.171  0.171  0.000  0.000  0.000  0.000  0.000  0.342
  2  0.000  0.000  0.171  0.171  0.000  0.000  0.000  0.000  0.000  0.342
  3  0.000  0.000  0.006  0.006  0.000  0.000  0.000  0.000  0.000  0.011
tot  0.000  0.000  0.347  0.347  0.000  0.000  0.000  0.000  0.000  0.694
 
band   8 # energy   13.05278105 # occ.  0.00000000
 
ion      s     py     pz     px    dxy    dyz    dz2    dxz    dx2    tot
  1  0.000  0.228  0.057  0.057  0.000  0.000  0.000  0.000  0.000  0.342
  2  0.000  0.228  0.057  0.057  0.000  0.000  0.000  0.000  0.000  0.342
  3  0.000  0.007  0.002  0.002  0.000  0.000  0.000  0.000  0.000  0.011
tot  0.000  0.463  0.116  0.116  0.000  0.000  0.000  0.000  0.000  0.694
 
band   9 # energy   18.55336047 # occ.  0.00000000
 
ion      s     py     pz     px    dxy    dyz    dz2    dxz    dx2    tot
  1  0.000  0.048  0.056  0.056  0.000  0.000  0.000  0.000  0.000  0.160
  2  0.000  0.048  0.056  0.056  0.000  0.000  0.000  0.000  0.000  0.160
  3  0.000  0.000  0.000  0.000  0.000  0.000  0.000  0.000  0.000  0.000
tot  0.000  0.096  0.111  0.113  0.000  0.000  0.000  0.000  0.000  0.320
 
band  10 # energy   18.55336139 # occ.  0.00000000
 
ion      s     py     pz     px    dxy    dyz    dz2    dxz    dx2    tot
  1  0.000  0.059  0.051  0.051  0.000  0.000  0.000  0.000  0.000  0.160
  2  0.000  0.059  0.051  0.050  0.000  0.000  0.000  0.000  0.000  0.160
  3  0.000  0.000  0.000  0.000  0.000  0.000  0.000  0.000  0.000  0.000
tot  0.000  0.118  0.102  0.101  0.000  0.000  0.000  0.000  0.000  0.321
 

 k-point    2 :    0.37500000 0.12500000 0.12500000     weight = 0.09375000

band   1 # energy  -14.37190349 # occ.  1.00000000
 
ion      s     py     pz     px    dxy    dyz    dz2    dxz    dx2    tot
  1  0.013  0.004  0.002  0.004  0.000  0.000  0.000  0.000  0.000  0.022
  2  0.013  0.004  0.002  0.004  0.000  0.000  0.000  0.000  0.000  0.022
  3  0.757  0.000  0.000  0.000  0.000  0.000  0.000  0.000  0.000  0.757
tot  0.784  0.007  0.003  0.007  0.000  0.000  0.000  0.000  0.000  0.801
 
band   2 # energy   -0.93609836 # occ.  1.00000000
 
ion      s     py     pz     px    dxy    dyz    dz2    dxz    dx2    tot
  1  0.039  0.005  0.025  0.005  0.000  0.000  0.000  0.000  0.000  0.074
  2  0.039  0.005  0.025  0.005  0.000  0.000  0.000  0.000  0.000  0.074
  3  0.007  0.216  0.068  0.216  0.000  0.000  0.000  0.000  0.000  0.507
tot  0.085  0.226  0.119  0.226  0.000  0.000  0.000  0.000  0.000  0.656
 
band   3 # energy    0.26649863 # occ.  1.00000000
 
ion      s     py     pz     px    dxy    dyz    dz2    dxz    dx2    tot
  1  0.006  0.013  0.010  0.013  0.000  0.000  0.000  0.000  0.000  0.042
  2  0.006  0.013  0.010  0.013  0.000  0.000  0.000  0.000  0.000  0.042
  3  0.000  0.042  0.553  0.042  0.000  0.000  0.000  0.000  0.000  0.638
tot  0.013  0.067  0.574  0.067  0.000  0.000  0.000  0.000  0.000  0.721
 
band   4 # energy    0.67826548 # occ.  1.00000000
 
ion      s     py     pz     px    dxy    dyz    dz2    dxz    dx2    tot
  1  0.000  0.013  0.000  0.013  0.000  0.000  0.000  0.000  0.000  0.026
  2  0.000  0.013  0.000  0.013  0.000  0.000  0.000  0.000  0.000  0.026
  3  0.000  0.342  0.000  0.342  0.000  0.000  0.000  0.000  0.000  0.684
tot  0.000  0.368  0.000  0.368  0.000  0.000  0.000  0.000  0.000  0.735
 
band   5 # energy    8.08443374 # occ.  0.00000000
 
ion      s     py     pz     px    dxy    dyz    dz2    dxz    dx2    tot
  1  0.074  0.028  0.003  0.028  0.000  0.000  0.000  0.000  0.000  0.134
  2  0.074  0.028  0.003  0.028  0.000  0.000  0.000  0.000  0.000  0.134
  3  0.082  0.082  0.008  0.082  0.000  0.000  0.000  0.000  0.000  0.255
tot  0.230  0.139  0.013  0.139  0.000  0.000  0.000  0.000  0.000  0.522
 
band   6 # energy   12.02538577 # occ.  0.00000000
 
ion      s     py     pz     px    dxy    dyz    dz2    dxz    dx2    tot
  1  0.044  0.006  0.197  0.006  0.000  0.000  0.000  0.000  0.000  0.254
  2  0.044  0.006  0.197  0.006  0.000  0.000  0.000  0.000  0.000  0.254
  3  0.029  0.033  0.007  0.033  0.000  0.000  0.000  0.000  0.000  0.101
tot  0.118  0.045  0.402  0.045  0.000  0.000  0.000  0.000  0.000  0.609
 
band   7 # energy   13.50465482 # occ.  0.00000000
 
ion      s     py     pz     px    dxy    dyz    dz2    dxz    dx2    tot
  1  0.054  0.086  0.040  0.086  0.000  0.000  0.000  0.000  0.000  0.265
  2  0.054  0.086  0.040  0.086  0.000  0.000  0.000  0.000  0.000  0.265
  3  0.000  0.000  0.129  0.000  0.000  0.000  0.000  0.000  0.000  0.130
tot  0.108  0.172  0.208  0.172  0.000  0.000  0.000  0.000  0.000  0.660
 
band   8 # energy   14.06288881 # occ.  0.00000000
 
ion      s     py     pz     px    dxy    dyz    dz2    dxz    dx2    tot
  1  0.000  0.135  0.000  0.135  0.000  0.000  0.000  0.000  0.000  0.271
  2  0.000  0.135  0.000  0.135  0.000  0.000  0.000  0.000  0.000  0.271
  3  0.000  0.001  0.000  0.001  0.000  0.000  0.000  0.000  0.000  0.002
tot  0.000  0.272  0.000  0.272  0.000  0.000  0.000  0.000  0.000  0.543
 
band   9 # energy   15.98334852 # occ.  0.00000000
 
ion      s     py     pz     px    dxy    dyz    dz2    dxz    dx2    tot
  1  0.000  0.121  0.000  0.121  0.000  0.000  0.000  0.000  0.000  0.243
  2  0.000  0.121  0.000  0.121  0.000  0.000  0.000  0.000  0.000  0.243
  3  0.000  0.020  0.000  0.020  0.000  0.000  0.000  0.000  0.000  0.039
tot  0.000  0.262  0.000  0.262  0.000  0.000  0.000  0.000  0.000  0.524
 
band  10 # energy   19.60448067 # occ.  0.00000000
 
ion      s     py     pz     px    dxy    dyz    dz2    dxz    dx2    tot
  1  0.039  0.038  0.108  0.038  0.000  0.000  0.000  0.000  0.000  0.223
  2  0.039  0.038  0.108  0.038  0.000  0.000  0.000  0.000  0.000  0.223
  3  0.000  0.036  0.007  0.036  0.000  0.000  0.000  0.000  0.000  0.079
tot  0.078  0.111  0.224  0.111  0.000  0.000  0.000  0.000  0.000  0.525
 

 k-point    3 :   -0.37500000 0.12500000 0.12500000     weight = 0.09375000

band   1 # energy  -14.28206997 # occ.  1.00000000
 
ion      s     py     pz     px    dxy    dyz    dz2    dxz    dx2    tot
  1  0.006  0.004  0.006  0.004  0.000  0.000  0.000  0.000  0.000  0.019
  2  0.006  0.004  0.006  0.004  0.000  0.000  0.000  0.000  0.000  0.019
  3  0.767  0.000  0.000  0.000  0.000  0.000  0.000  0.000  0.000  0.767
tot  0.779  0.007  0.012  0.007  0.000  0.000  0.000  0.000  0.000  0.805
 
band   2 # energy   -1.67504215 # occ.  1.00000000
 
ion      s     py     pz     px    dxy    dyz    dz2    dxz    dx2    tot
  1  0.047  0.016  0.015  0.016  0.000  0.000  0.000  0.000  0.000  0.095
  2  0.047  0.016  0.015  0.016  0.000  0.000  0.000  0.000  0.000  0.095
  3  0.000  0.151  0.149  0.151  0.000  0.000  0.000  0.000  0.000  0.451
tot  0.095  0.184  0.179  0.184  0.000  0.000  0.000  0.000  0.000  0.641
 
band   3 # energy    0.30099230 # occ.  1.00000000
 
ion      s     py     pz     px    dxy    dyz    dz2    dxz    dx2    tot
  1  0.009  0.007  0.019  0.007  0.000  0.000  0.000  0.000  0.000  0.041
  2  0.009  0.007  0.019  0.007  0.000  0.000  0.000  0.000  0.000  0.041
  3  0.001  0.105  0.434  0.105  0.000  0.000  0.000  0.000  0.000  0.645
tot  0.018  0.119  0.473  0.119  0.000  0.000  0.000  0.000  0.000  0.728
 
band   4 # energy    0.33386940 # occ.  1.00000000
 
ion      s     py     pz     px    dxy    dyz    dz2    dxz    dx2    tot
  1  0.000  0.021  0.000  0.021  0.000  0.000  0.000  0.000  0.000  0.041
  2  0.000  0.021  0.000  0.021  0.000  0.000  0.000  0.000  0.000  0.041
  3  0.000  0.324  0.000  0.324  0.000  0.000  0.000  0.000  0.000  0.649
tot  0.000  0.365  0.000  0.365  0.000  0.000  0.000  0.000  0.000  0.731
 
band   5 # energy    9.27680715 # occ.  0.00000000
 
ion      s     py     pz     px    dxy    dyz    dz2    dxz    dx2    tot
  1  0.020  0.007  0.073  0.007  0.000  0.000  0.000  0.000  0.000  0.106
  2  0.020  0.007  0.073  0.007  0.000  0.000  0.000  0.000  0.000  0.106
  3  0.020  0.086  0.072  0.086  0.000  0.000  0.000  0.000  0.000  0.264
tot  0.060  0.099  0.218  0.099  0.000  0.000  0.000  0.000  0.000  0.476
 
band   6 # energy   11.15770191 # occ.  0.00000000
 
ion      s     py     pz     px    dxy    dyz    dz2    dxz    dx2    tot
  1  0.116  0.053  0.020  0.053  0.000  0.000  0.000  0.000  0.000  0.241
  2  0.116  0.053  0.020  0.053  0.000  0.000  0.000  0.000  0.000  0.241
  3  0.093  0.030  0.000  0.030  0.000  0.000  0.000  0.000  0.000  0.153
tot  0.324  0.135  0.040  0.135  0.000  0.000  0.000  0.000  0.000  0.635
 
band   7 # energy   13.23324651 # occ.  0.00000000
 
ion      s     py     pz     px    dxy    dyz    dz2    dxz    dx2    tot
  1  0.000  0.119  0.000  0.119  0.000  0.000  0.000  0.000  0.000  0.239
  2  0.000  0.119  0.000  0.119  0.000  0.000  0.000  0.000  0.000  0.239
  3  0.000  0.025  0.000  0.025  0.000  0.000  0.000  0.000  0.000  0.049
tot  0.000  0.263  0.000  0.263  0.000  0.000  0.000  0.000  0.000  0.527
 
band   8 # energy   13.67922788 # occ.  0.00000000
 
ion      s     py     pz     px    dxy    dyz    dz2    dxz    dx2    tot
  1  0.040  0.033  0.113  0.033  0.000  0.000  0.000  0.000  0.000  0.219
  2  0.040  0.033  0.113  0.033  0.000  0.000  0.000  0.000  0.000  0.219
  3  0.000  0.008  0.079  0.008  0.000  0.000  0.000  0.000  0.000  0.094
tot  0.081  0.074  0.305  0.074  0.000  0.000  0.000  0.000  0.000  0.533
 
band   9 # energy   18.06272918 # occ.  0.00000000
 
ion      s     py     pz     px    dxy    dyz    dz2    dxz    dx2    tot
  1  0.035  0.050  0.152  0.050  0.000  0.000  0.000  0.000  0.000  0.288
  2  0.035  0.050  0.152  0.050  0.000  0.000  0.000  0.000  0.000  0.288
  3  0.002  0.013  0.082  0.013  0.000  0.000  0.000  0.000  0.000  0.110
tot  0.072  0.113  0.387  0.113  0.000  0.000  0.000  0.000  0.000  0.686
 
band  10 # energy   19.20989353 # occ.  0.00000000
 
ion      s     py     pz     px    dxy    dyz    dz2    dxz    dx2    tot
  1  0.000  0.146  0.000  0.146  0.000  0.000  0.000  0.000  0.000  0.293
  2  0.000  0.146  0.000  0.146  0.000  0.000  0.000  0.000  0.000  0.293
  3  0.000  0.062  0.000  0.062  0.000  0.000  0.000  0.000  0.000  0.123
tot  0.000  0.355  0.000  0.355  0.000  0.000  0.000  0.000  0.000  0.709
 

 k-point    4 :   -0.12500000 0.12500000 0.12500000     weight = 0.09375000

band   1 # energy  -14.43421824 # occ.  1.00000000
 
ion      s     py     pz     px    dxy    dyz    dz2    dxz    dx2    tot
  1  0.018  0.001  0.005  0.001  0.000  0.000  0.000  0.000  0.000  0.024
  2  0.018  0.001  0.005  0.001  0.000  0.000  0.000  0.000  0.000  0.024
  3  0.750  0.000  0.000  0.000  0.000  0.000  0.000  0.000  0.000  0.750
tot  0.786  0.001  0.010  0.001  0.000  0.000  0.000  0.000  0.000  0.798
 
band   2 # energy   -0.26898782 # occ.  1.00000000
 
ion      s     py     pz     px    dxy    dyz    dz2    dxz    dx2    tot
  1  0.032  0.011  0.002  0.011  0.000  0.000  0.000  0.000  0.000  0.054
  2  0.032  0.011  0.002  0.011  0.000  0.000  0.000  0.000  0.000  0.054
  3  0.009  0.128  0.303  0.128  0.000  0.000  0.000  0.000  0.000  0.568
tot  0.072  0.149  0.306  0.149  0.000  0.000  0.000  0.000  0.000  0.677
 
band   3 # energy    0.48353712 # occ.  1.00000000
 
ion      s     py     pz     px    dxy    dyz    dz2    dxz    dx2    tot
  1  0.000  0.016  0.000  0.016  0.000  0.000  0.000  0.000  0.000  0.033
  2  0.000  0.016  0.000  0.016  0.000  0.000  0.000  0.000  0.000  0.033
  3  0.000  0.330  0.000  0.330  0.000  0.000  0.000  0.000  0.000  0.659
tot  0.000  0.363  0.000  0.363  0.000  0.000  0.000  0.000  0.000  0.725
 
band   4 # energy    0.62968373 # occ.  1.00000000
 
ion      s     py     pz     px    dxy    dyz    dz2    dxz    dx2    tot
  1  0.005  0.006  0.009  0.006  0.000  0.000  0.000  0.000  0.000  0.026
  2  0.005  0.006  0.009  0.006  0.000  0.000  0.000  0.000  0.000  0.026
  3  0.001  0.186  0.303  0.186  0.000  0.000  0.000  0.000  0.000  0.675
tot  0.011  0.197  0.321  0.197  0.000  0.000  0.000  0.000  0.000  0.727
 
band   5 # energy    7.23295750 # occ.  0.00000000
 
ion      s     py     pz     px    dxy    dyz    dz2    dxz    dx2    tot
  1  0.091  0.003  0.047  0.003  0.000  0.000  0.000  0.000  0.000  0.143
  2  0.091  0.003  0.047  0.003  0.000  0.000  0.000  0.000  0.000  0.143
  3  0.100  0.013  0.092  0.013  0.000  0.000  0.000  0.000  0.000  0.218
tot  0.282  0.019  0.185  0.019  0.000  0.000  0.000  0.000  0.000  0.505
 
band   6 # energy   12.87630376 # occ.  0.00000000
 
ion      s     py     pz     px    dxy    dyz    dz2    dxz    dx2    tot
  1  0.030  0.119  0.013  0.119  0.000  0.000  0.000  0.000  0.000  0.281
  2  0.030  0.119  0.013  0.119  0.000  0.000  0.000  0.000  0.000  0.281
  3  0.009  0.046  0.006  0.046  0.000  0.000  0.000  0.000  0.000  0.107
tot  0.068  0.284  0.033  0.284  0.000  0.000  0.000  0.000  0.000  0.668
 
band   7 # energy   13.19643931 # occ.  0.00000000
 
ion      s     py     pz     px    dxy    dyz    dz2    dxz    dx2    tot
  1  0.000  0.150  0.000  0.150  0.000  0.000  0.000  0.000  0.000  0.301
  2  0.000  0.150  0.000  0.150  0.000  0.000  0.000  0.000  0.000  0.301
  3  0.000  0.040  0.000  0.040  0.000  0.000  0.000  0.000  0.000  0.080
tot  0.000  0.340  0.000  0.340  0.000  0.000  0.000  0.000  0.000  0.681
 
band   8 # energy   13.86811799 # occ.  0.00000000
 
ion      s     py     pz     px    dxy    dyz    dz2    dxz    dx2    tot
  1  0.038  0.012  0.260  0.012  0.000  0.000  0.000  0.000  0.000  0.323
  2  0.038  0.012  0.260  0.012  0.000  0.000  0.000  0.000  0.000  0.323
  3  0.000  0.002  0.000  0.002  0.000  0.000  0.000  0.000  0.000  0.006
tot  0.077  0.027  0.521  0.027  0.000  0.000  0.000  0.000  0.000  0.651
 
band   9 # energy   15.80229805 # occ.  0.00000000
 
ion      s     py     pz     px    dxy    dyz    dz2    dxz    dx2    tot
  1  0.034  0.023  0.101  0.023  0.000  0.000  0.000  0.000  0.000  0.180
  2  0.034  0.023  0.101  0.023  0.000  0.000  0.000  0.000  0.000  0.180
  3  0.005  0.001  0.035  0.001  0.000  0.000  0.000  0.000  0.000  0.041
tot  0.073  0.046  0.236  0.046  0.000  0.000  0.000  0.000  0.000  0.402
 
band  10 # energy   20.28884798 # occ.  0.00000000
 
ion      s     py     pz     px    dxy    dyz    dz2    dxz    dx2    tot
  1  0.000  0.092  0.000  0.092  0.000  0.000  0.000  0.000  0.000  0.184
  2  0.000  0.092  0.000  0.092  0.000  0.000  0.000  0.000  0.000  0.184
  3  0.000  0.006  0.000  0.006  0.000  0.000  0.000  0.000  0.000  0.011
tot  0.000  0.190  0.000  0.190  0.000  0.000  0.000  0.000  0.000  0.380
 

 k-point    5 :    0.37500000 0.37500000 0.12500000     weight = 0.09375000

band   1 # energy  -14.32049710 # occ.  1.00000000
 
ion      s     py     pz     px    dxy    dyz    dz2    dxz    dx2    tot
  1  0.008  0.011  0.001  0.001  0.000  0.000  0.000  0.000  0.000  0.021
  2  0.008  0.011  0.001  0.001  0.000  0.000  0.000  0.000  0.000  0.021
  3  0.762  0.000  0.000  0.000  0.000  0.000  0.000  0.000  0.000  0.762
tot  0.779  0.022  0.001  0.001  0.000  0.000  0.000  0.000  0.000  0.803
 
band   2 # energy   -0.74476949 # occ.  1.00000000
 
ion      s     py     pz     px    dxy    dyz    dz2    dxz    dx2    tot
  1  0.041  0.001  0.014  0.014  0.000  0.000  0.000  0.000  0.000  0.071
  2  0.041  0.001  0.014  0.014  0.000  0.000  0.000  0.000  0.000  0.071
  3  0.005  0.301  0.113  0.113  0.000  0.000  0.000  0.000  0.000  0.531
tot  0.087  0.303  0.141  0.141  0.000  0.000  0.000  0.000  0.000  0.673
 
band   3 # energy    0.00192848 # occ.  1.00000000
 
ion      s     py     pz     px    dxy    dyz    dz2    dxz    dx2    tot
  1  0.000  0.000  0.027  0.027  0.000  0.000  0.000  0.000  0.000  0.054
  2  0.000  0.000  0.027  0.027  0.000  0.000  0.000  0.000  0.000  0.054
  3  0.000  0.000  0.306  0.306  0.000  0.000  0.000  0.000  0.000  0.613
tot  0.000  0.000  0.360  0.360  0.000  0.000  0.000  0.000  0.000  0.721
 
band   4 # energy    0.09458917 # occ.  1.00000000
 
ion      s     py     pz     px    dxy    dyz    dz2    dxz    dx2    tot
  1  0.016  0.007  0.013  0.013  0.000  0.000  0.000  0.000  0.000  0.048
  2  0.016  0.007  0.013  0.013  0.000  0.000  0.000  0.000  0.000  0.048
  3  0.001  0.265  0.178  0.178  0.000  0.000  0.000  0.000  0.000  0.622
tot  0.033  0.280  0.203  0.203  0.000  0.000  0.000  0.000  0.000  0.719
 
band   5 # energy    7.14699602 # occ.  0.00000000
 
ion      s     py     pz     px    dxy    dyz    dz2    dxz    dx2    tot
  1  0.025  0.115  0.001  0.001  0.000  0.000  0.000  0.000  0.000  0.141
  2  0.025  0.115  0.001  0.001  0.000  0.000  0.000  0.000  0.000  0.141
  3  0.059  0.065  0.016  0.016  0.000  0.000  0.000  0.000  0.000  0.156
tot  0.108  0.295  0.017  0.017  0.000  0.000  0.000  0.000  0.000  0.437
 
band   6 # energy   13.13765275 # occ.  0.00000000
 
ion      s     py     pz     px    dxy    dyz    dz2    dxz    dx2    tot
  1  0.051  0.001  0.093  0.093  0.000  0.000  0.000  0.000  0.000  0.239
  2  0.051  0.001  0.093  0.093  0.000  0.000  0.000  0.000  0.000  0.239
  3  0.026  0.007  0.072  0.072  0.000  0.000  0.000  0.000  0.000  0.177
tot  0.129  0.010  0.259  0.259  0.000  0.000  0.000  0.000  0.000  0.655
 
band   7 # energy   13.70132290 # occ.  0.00000000
 
ion      s     py     pz     px    dxy    dyz    dz2    dxz    dx2    tot
  1  0.000  0.000  0.128  0.128  0.000  0.000  0.000  0.000  0.000  0.257
  2  0.000  0.000  0.128  0.128  0.000  0.000  0.000  0.000  0.000  0.257
  3  0.000  0.000  0.084  0.084  0.000  0.000  0.000  0.000  0.000  0.168
tot  0.000  0.000  0.341  0.341  0.000  0.000  0.000  0.000  0.000  0.682
 
band   8 # energy   14.80649252 # occ.  0.00000000
 
ion      s     py     pz     px    dxy    dyz    dz2    dxz    dx2    tot
  1  0.111  0.068  0.012  0.012  0.000  0.000  0.000  0.000  0.000  0.204
  2  0.111  0.068  0.012  0.012  0.000  0.000  0.000  0.000  0.000  0.204
  3  0.005  0.119  0.013  0.013  0.000  0.000  0.000  0.000  0.000  0.150
tot  0.227  0.255  0.038  0.038  0.000  0.000  0.000  0.000  0.000  0.558
 
band   9 # energy   15.58581655 # occ.  0.00000000
 
ion      s     py     pz     px    dxy    dyz    dz2    dxz    dx2    tot
  1  0.104  0.128  0.026  0.026  0.000  0.000  0.000  0.000  0.000  0.283
  2  0.104  0.128  0.026  0.026  0.000  0.000  0.000  0.000  0.000  0.283
  3  0.001  0.040  0.001  0.001  0.000  0.000  0.000  0.000  0.000  0.043
tot  0.208  0.297  0.052  0.052  0.000  0.000  0.000  0.000  0.000  0.609
 
band  10 # energy   22.30813879 # occ.  0.00000000
 
ion      s     py     pz     px    dxy    dyz    dz2    dxz    dx2    tot
  1  0.000  0.000  0.120  0.121  0.000  0.000  0.000  0.000  0.000  0.241
  2  0.000  0.000  0.121  0.121  0.000  0.000  0.000  0.000  0.000  0.241
  3  0.000  0.000  0.022  0.022  0.000  0.000  0.000  0.000  0.000  0.044
tot  0.000  0.000  0.263  0.263  0.000  0.000  0.000  0.000  0.000  0.526
 

 k-point    6 :   -0.37500000 0.37500000 0.12500000     weight = 0.18750000

band   1 # energy  -14.23269872 # occ.  1.00000000
 
ion      s     py     pz     px    dxy    dyz    dz2    dxz    dx2    tot
  1  0.001  0.011  0.005  0.001  0.000  0.000  0.000  0.000  0.000  0.017
  2  0.001  0.011  0.005  0.001  0.000  0.000  0.000  0.000  0.000  0.017
  3  0.772  0.000  0.000  0.000  0.000  0.000  0.000  0.000  0.000  0.772
tot  0.774  0.022  0.009  0.001  0.000  0.000  0.000  0.000  0.000  0.806
 
band   2 # energy   -1.10661116 # occ.  1.00000000
 
ion      s     py     pz     px    dxy    dyz    dz2    dxz    dx2    tot
  1  0.026  0.020  0.030  0.012  0.000  0.000  0.000  0.000  0.000  0.087
  2  0.026  0.020  0.030  0.012  0.000  0.000  0.000  0.000  0.000  0.087
  3  0.000  0.119  0.107  0.268  0.000  0.000  0.000  0.000  0.000  0.494
tot  0.052  0.158  0.167  0.292  0.000  0.000  0.000  0.000  0.000  0.669
 
band   3 # energy   -0.42534647 # occ.  1.00000000
 
ion      s     py     pz     px    dxy    dyz    dz2    dxz    dx2    tot
  1  0.035  0.005  0.002  0.025  0.000  0.000  0.000  0.000  0.000  0.066
  2  0.035  0.005  0.002  0.025  0.000  0.000  0.000  0.000  0.000  0.066
  3  0.000  0.366  0.197  0.013  0.000  0.000  0.000  0.000  0.000  0.576
tot  0.070  0.375  0.200  0.063  0.000  0.000  0.000  0.000  0.000  0.708
 
band   4 # energy   -0.24382206 # occ.  1.00000000
 
ion      s     py     pz     px    dxy    dyz    dz2    dxz    dx2    tot
  1  0.010  0.007  0.021  0.026  0.000  0.000  0.000  0.000  0.000  0.063
  2  0.010  0.007  0.021  0.026  0.000  0.000  0.000  0.000  0.000  0.063
  3  0.000  0.080  0.266  0.242  0.000  0.000  0.000  0.000  0.000  0.588
tot  0.020  0.093  0.307  0.295  0.000  0.000  0.000  0.000  0.000  0.715
 
band   5 # energy    7.84680062 # occ.  0.00000000
 
ion      s     py     pz     px    dxy    dyz    dz2    dxz    dx2    tot
  1  0.001  0.097  0.004  0.001  0.000  0.000  0.000  0.000  0.000  0.103
  2  0.001  0.097  0.004  0.001  0.000  0.000  0.000  0.000  0.000  0.103
  3  0.016  0.008  0.012  0.155  0.000  0.000  0.000  0.000  0.000  0.192
tot  0.019  0.202  0.019  0.157  0.000  0.000  0.000  0.000  0.000  0.397
 
band   6 # energy   11.80694769 # occ.  0.00000000
 
ion      s     py     pz     px    dxy    dyz    dz2    dxz    dx2    tot
  1  0.023  0.061  0.160  0.003  0.000  0.000  0.000  0.000  0.000  0.247
  2  0.023  0.061  0.160  0.003  0.000  0.000  0.000  0.000  0.000  0.247
  3  0.077  0.001  0.006  0.060  0.000  0.000  0.000  0.000  0.000  0.143
tot  0.122  0.123  0.327  0.066  0.000  0.000  0.000  0.000  0.000  0.637
 
band   7 # energy   14.50344027 # occ.  0.00000000
 
ion      s     py     pz     px    dxy    dyz    dz2    dxz    dx2    tot
  1  0.061  0.001  0.019  0.128  0.000  0.000  0.000  0.000  0.000  0.208
  2  0.061  0.001  0.019  0.128  0.000  0.000  0.000  0.000  0.000  0.208
  3  0.001  0.002  0.240  0.005  0.000  0.000  0.000  0.000  0.000  0.248
tot  0.122  0.005  0.278  0.260  0.000  0.000  0.000  0.000  0.000  0.664
 
band   8 # energy   15.01638866 # occ.  0.00000000
 
ion      s     py     pz     px    dxy    dyz    dz2    dxz    dx2    tot
  1  0.129  0.011  0.004  0.044  0.000  0.000  0.000  0.000  0.000  0.189
  2  0.129  0.011  0.004  0.044  0.000  0.000  0.000  0.000  0.000  0.189
  3  0.000  0.275  0.004  0.000  0.000  0.000  0.000  0.000  0.000  0.280
tot  0.259  0.297  0.012  0.089  0.000  0.000  0.000  0.000  0.000  0.657
 
band   9 # energy   17.83016143 # occ.  0.00000000
 
ion      s     py     pz     px    dxy    dyz    dz2    dxz    dx2    tot
  1  0.138  0.030  0.006  0.110  0.000  0.000  0.000  0.000  0.000  0.285
  2  0.138  0.030  0.006  0.110  0.000  0.000  0.000  0.000  0.000  0.285
  3  0.003  0.005  0.000  0.003  0.000  0.000  0.000  0.000  0.000  0.011
tot  0.280  0.066  0.011  0.224  0.000  0.000  0.000  0.000  0.000  0.581
 
band  10 # energy   20.08644148 # occ.  0.00000000
 
ion      s     py     pz     px    dxy    dyz    dz2    dxz    dx2    tot
  1  0.042  0.002  0.044  0.210  0.000  0.000  0.000  0.000  0.000  0.299
  2  0.042  0.002  0.044  0.210  0.000  0.000  0.000  0.000  0.000  0.299
  3  0.002  0.000  0.005  0.007  0.000  0.000  0.000  0.000  0.000  0.014
tot  0.086  0.005  0.094  0.427  0.000  0.000  0.000  0.000  0.000  0.612
 

 k-point    7 :   -0.12500000 0.37500000 0.12500000     weight = 0.18750000

band   1 # energy  -14.28843510 # occ.  1.00000000
 
ion      s     py     pz     px    dxy    dyz    dz2    dxz    dx2    tot
  1  0.006  0.003  0.008  0.002  0.000  0.000  0.000  0.000  0.000  0.019
  2  0.006  0.003  0.008  0.002  0.000  0.000  0.000  0.000  0.000  0.019
  3  0.766  0.000  0.000  0.000  0.000  0.000  0.000  0.000  0.000  0.766
tot  0.778  0.007  0.016  0.004  0.000  0.000  0.000  0.000  0.000  0.804
 
band   2 # energy   -1.26676633 # occ.  1.00000000
 
ion      s     py     pz     px    dxy    dyz    dz2    dxz    dx2    tot
  1  0.039  0.030  0.008  0.009  0.000  0.000  0.000  0.000  0.000  0.086
  2  0.039  0.030  0.008  0.009  0.000  0.000  0.000  0.000  0.000  0.086
  3  0.003  0.064  0.207  0.208  0.000  0.000  0.000  0.000  0.000  0.482
tot  0.082  0.123  0.224  0.226  0.000  0.000  0.000  0.000  0.000  0.654
 
band   3 # energy   -0.09215655 # occ.  1.00000000
 
ion      s     py     pz     px    dxy    dyz    dz2    dxz    dx2    tot
  1  0.014  0.008  0.005  0.028  0.000  0.000  0.000  0.000  0.000  0.056
  2  0.014  0.008  0.005  0.028  0.000  0.000  0.000  0.000  0.000  0.056
  3  0.000  0.526  0.048  0.031  0.000  0.000  0.000  0.000  0.000  0.605
tot  0.029  0.542  0.058  0.087  0.000  0.000  0.000  0.000  0.000  0.716
 
band   4 # energy    0.29059224 # occ.  1.00000000
 
ion      s     py     pz     px    dxy    dyz    dz2    dxz    dx2    tot
  1  0.006  0.007  0.016  0.014  0.000  0.000  0.000  0.000  0.000  0.043
  2  0.006  0.007  0.016  0.014  0.000  0.000  0.000  0.000  0.000  0.043
  3  0.000  0.001  0.317  0.324  0.000  0.000  0.000  0.000  0.000  0.642
tot  0.012  0.015  0.349  0.353  0.000  0.000  0.000  0.000  0.000  0.728
 
band   5 # energy    8.37131856 # occ.  0.00000000
 
ion      s     py     pz     px    dxy    dyz    dz2    dxz    dx2    tot
  1  0.020  0.001  0.084  0.007  0.000  0.000  0.000  0.000  0.000  0.113
  2  0.020  0.001  0.084  0.007  0.000  0.000  0.000  0.000  0.000  0.113
  3  0.036  0.009  0.070  0.119  0.000  0.000  0.000  0.000  0.000  0.235
tot  0.076  0.012  0.239  0.133  0.000  0.000  0.000  0.000  0.000  0.460
 
band   6 # energy   11.60629715 # occ.  0.00000000
 
ion      s     py     pz     px    dxy    dyz    dz2    dxz    dx2    tot
  1  0.064  0.171  0.010  0.003  0.000  0.000  0.000  0.000  0.000  0.248
  2  0.064  0.171  0.010  0.003  0.000  0.000  0.000  0.000  0.000  0.248
  3  0.067  0.006  0.000  0.048  0.000  0.000  0.000  0.000  0.000  0.120
tot  0.194  0.348  0.020  0.055  0.000  0.000  0.000  0.000  0.000  0.616
 
band   7 # energy   13.96420565 # occ.  0.00000000
 
ion      s     py     pz     px    dxy    dyz    dz2    dxz    dx2    tot
  1  0.049  0.029  0.009  0.144  0.000  0.000  0.000  0.000  0.000  0.231
  2  0.049  0.029  0.009  0.144  0.000  0.000  0.000  0.000  0.000  0.231
  3  0.001  0.168  0.006  0.001  0.000  0.000  0.000  0.000  0.000  0.176
tot  0.099  0.226  0.025  0.289  0.000  0.000  0.000  0.000  0.000  0.639
 
band   8 # energy   14.41944041 # occ.  0.00000000
 
ion      s     py     pz     px    dxy    dyz    dz2    dxz    dx2    tot
  1  0.060  0.006  0.085  0.051  0.000  0.000  0.000  0.000  0.000  0.202
  2  0.060  0.006  0.085  0.051  0.000  0.000  0.000  0.000  0.000  0.202
  3  0.001  0.024  0.114  0.000  0.000  0.000  0.000  0.000  0.000  0.139
tot  0.120  0.035  0.284  0.102  0.000  0.000  0.000  0.000  0.000  0.542
 
band   9 # energy   16.67260862 # occ.  0.00000000
 
ion      s     py     pz     px    dxy    dyz    dz2    dxz    dx2    tot
  1  0.043  0.006  0.139  0.113  0.000  0.000  0.000  0.000  0.000  0.300
  2  0.043  0.006  0.139  0.113  0.000  0.000  0.000  0.000  0.000  0.300
  3  0.000  0.000  0.033  0.003  0.000  0.000  0.000  0.000  0.000  0.036
tot  0.087  0.011  0.310  0.228  0.000  0.000  0.000  0.000  0.000  0.637
 