<?xml version="1.0" encoding="ISO-8859-1"?>
<modeling>
 <generator>
  <i name="program" type="string">vasp </i>
  <i name="version" type="string">5.3.2  </i>
  <i name="subversion" type="string">13Sep12 (build Oct 30 2012 11:58:51) complex                          parallel </i>
  <i name="platform" type="string">LinuxIFC </i>
  <i name="date" type="string">2013 02 27 </i>
  <i name="time" type="string">16:13:01 </i>
 </generator>
 <incar>
  <i type="string" name="PREC">accurate</i>
  <i type="string" name="ALGO"> Fast</i>
  <i type="int" name="ISPIN">     2</i>
  <i type="int" name="ICHARG">     1</i>
  <i type="int" name="NELM">   100</i>
  <i type="int" name="NELMIN">     6</i>
  <i type="int" name="IBRION">     2</i>
  <i name="EDIFF">      0.00040000</i>
  <i type="int" name="NSW">    99</i>
  <i type="int" name="ISIF">     3</i>
  <i name="ENCUT">    520.00000000</i>
  <i type="string" name="LREAL"> Auto</i>
  <i type="int" name="ISMEAR">    -5</i>
  <i name="SIGMA">      0.05000000</i>
  <i type="int" name="LMAXMIX">     4</i>
  <i type="logical" name="LWAVE"> F  </i>
  <i type="logical" name="LORBIT"> F  </i>
  <i type="int" name="NELM">   100</i>
 </incar>
 <kpoints>
  <generation param="Monkhorst-Pack">
   <v type="int" name="divisions">       4        4        4 </v>
   <v name="usershift">      0.00000000       0.00000000       0.00000000 </v>
   <v name="genvec1">      0.25000000       0.00000000       0.00000000 </v>
   <v name="genvec2">      0.00000000       0.25000000       0.00000000 </v>
   <v name="genvec3">      0.00000000       0.00000000       0.25000000 </v>
   <v name="shift">      0.50000000       0.50000000       0.50000000 </v>
  </generation>
  <varray name="kpointlist" >
   <v>       0.12500000       0.12500000       0.12500000 </v>
   <v>       0.37500000       0.12500000       0.12500000 </v>
   <v>      -0.37500000       0.12500000       0.12500000 </v>
   <v>      -0.12500000       0.12500000       0.12500000 </v>
   <v>       0.37500000       0.37500000       0.12500000 </v>
   <v>      -0.37500000       0.37500000       0.12500000 </v>
   <v>      -0.12500000       0.37500000       0.12500000 </v>
   <v>      -0.37500000      -0.37500000       0.12500000 </v>
   <v>       0.37500000       0.37500000       0.37500000 </v>
   <v>      -0.37500000       0.37500000       0.37500000 </v>
  </varray>
  <varray name="weights" >
   <v>       0.03125000 </v>
   <v>       0.09375000 </v>
   <v>       0.09375000 </v>
   <v>       0.09375000 </v>
   <v>       0.09375000 </v>
   <v>       0.18750000 </v>
   <v>       0.18750000 </v>
   <v>       0.09375000 </v>
   <v>       0.03125000 </v>
   <v>       0.09375000 </v>
  </varray>
  <varray name="tetrahedronlist"  type="int" >
   <v type="int" >       24        1        2        4        9 </v>
   <v type="int" >       24        2        3        4        7 </v>
   <v type="int" >       24        3        4        5        7 </v>
   <v type="int" >       24        2        3        4        9 </v>
   <v type="int" >       24        5        6        7       10 </v>
   <v type="int" >       24        5        6        8       10 </v>
   <v type="int" >       24        3        5        7       10 </v>
   <v type="int" >       24        6        6        8       10 </v>
   <v type="int" >       24        6        8        8       10 </v>
   <v type="int" >       24        6        8       10       10 </v>
   <v type="int" >       24        3        6        7        8 </v>
   <v type="int" >       24        3        5        7        8 </v>
   <v type="int" >       24        3        6        8       10 </v>
   <v type="int" >       24        2        5        7        9 </v>
   <v type="int" >       24        2        4        5        9 </v>
   <v type="int" >       24        3        5        7        9 </v>
   <v type="int" >       36        2        2        4        4 </v>
   <v type="int" >       48        1        2        4        4 </v>
   <v type="int" >       24        2        2        4        9 </v>
   <v type="int" >       24        1        1        2        4 </v>
   <v type="int" >       24        1        2        2        4 </v>
   <v type="int" >       24        2        3        7       10 </v>
   <v type="int" >       24        2        3        3        7 </v>
   <v type="int" >       24        2        3        3        9 </v>
   <v type="int" >       72        6        7        7       10 </v>
   <v type="int" >       36        6        6        7        7 </v>
   <v type="int" >       48        3        7        7       10 </v>
   <v type="int" >       12        3        3        7        7 </v>
   <v type="int" >       48        6        6        6        7 </v>
   <v type="int" >       72        6        6        7       10 </v>
   <v type="int" >       72        6        7       10       10 </v>
   <v type="int" >       24        3        6        6       10 </v>
   <v type="int" >       72        3        6        7       10 </v>
   <v type="int" >       24        3        3        6        7 </v>
   <v type="int" >       24        3        6        6        7 </v>
   <v type="int" >       24        3        3        6       10 </v>
   <v type="int" >       48        2        3        7        7 </v>
   <v type="int" >       48        2        3        7        9 </v>
   <v type="int" >       24        3        3        7       10 </v>
   <v type="int" >       24        3        3        3        7 </v>
   <v type="int" >       24        3        3        7        9 </v>
   <v type="int" >       48        2        5        7        7 </v>
   <v type="int" >       24        2        4        5        7 </v>
   <v type="int" >       48        2        2        4        7 </v>
   <v type="int" >       24        2        2        7        9 </v>
   <v type="int" >       24        4        5        5        7 </v>
   <v type="int" >       24        4        4        5        7 </v>
   <v type="int" >       24        2        4        4        7 </v>
   <v type="int" >       24        4        5        7        7 </v>
   <v type="int" >       24        2        4        7        7 </v>
   <v type="int" >       24        5        6        8        8 </v>
   <v type="int" >       24        5        6        6        8 </v>
   <v type="int" >       24        5        6        6        7 </v>
   <v type="int" >       24        5        5        6        8 </v>
   <v type="int" >       24        5        5        6        7 </v>
   <v type="int" >       48        5        6        7        7 </v>
   <v type="int" >       48        6        6        7        8 </v>
   <v type="int" >       24        5        6        7        8 </v>
   <v type="int" >       24        3        6        7        7 </v>
   <v type="int" >       48        6        6       10       10 </v>
   <v type="int" >       24        3        7       10       10 </v>
   <v type="int" >       12        3        3       10       10 </v>
   <v type="int" >       24        5        8        8        8 </v>
   <v type="int" >       24        5        5        8        8 </v>
   <v type="int" >       24        5        5        5        8 </v>
   <v type="int" >       24        6        7        8        8 </v>
   <v type="int" >       24        6        7        7        8 </v>
   <v type="int" >       24        5        7        8        8 </v>
   <v type="int" >       24        5        5        7        8 </v>
   <v type="int" >       24        5        7        7        8 </v>
   <v type="int" >       72        6        6        6       10 </v>
   <v type="int" >       72        6        6        6        8 </v>
   <v type="int" >       60        6        6        8        8 </v>
   <v type="int" >       48        6        8        8        8 </v>
   <v type="int" >       24        2        7        9       10 </v>
   <v type="int" >       24        3        7        9       10 </v>
   <v type="int" >       24        3        3        9       10 </v>
   <v type="int" >       24        2        4        4        5 </v>
   <v type="int" >       24        2        4        5        5 </v>
   <v type="int" >       24        2        5        5        7 </v>
   <v type="int" >       24        2        2        4        5 </v>
   <v type="int" >       24        2        2        5        7 </v>
   <v type="int" >       36        1        1        4        4 </v>
   <v type="int" >       48        1        4        4        4 </v>
   <v type="int" >       24        2        4        4        4 </v>
   <v type="int" >       24        1        1        1        4 </v>
   <v type="int" >       12        3        3        9        9 </v>
   <v type="int" >       24        2        7        7       10 </v>
   <v type="int" >       24        2        7       10       10 </v>
   <v type="int" >       24        2        2        7       10 </v>
   <v type="int" >       12        3        3        3        3 </v>
   <v type="int" >       24        3        3        3        9 </v>
   <v type="int" >       24        4        5        5        5 </v>
   <v type="int" >       24        4        4        5        5 </v>
   <v type="int" >       24        4        4        4        5 </v>
   <v type="int" >       24        7        7        7       10 </v>
   <v type="int" >       12        7        7       10       10 </v>
   <v type="int" >       24        2        7        7        7 </v>
   <v type="int" >       12        2        2        7        7 </v>
   <v type="int" >       72        6        6        6        6 </v>
   <v type="int" >       12        1        1        1        1 </v>
   <v type="int" >       36        8        8        8        8 </v>
  </varray>
  <i name="volumeweight">      0.00032552 </i>
 </kpoints>
 <parameters>
  <separator name="general" >
   <i type="string" name="SYSTEM">unknown system</i>
   <i type="logical" name="LCOMPAT"> F  </i>
  </separator>
  <separator name="electronic" >
   <i type="string" name="PREC">accura</i>
   <i name="ENMAX">    520.00000000</i>
   <i name="ENAUG">    605.39200000</i>
   <i name="EDIFF">      0.00040000</i>
   <i type="int" name="IALGO">    68</i>
   <i type="int" name="IWAVPR">    11</i>
   <i type="int" name="NBANDS">    10</i>
   <i name="NELECT">      8.00000000</i>
   <i type="int" name="TURBO">     0</i>
   <i type="int" name="IRESTART">     0</i>
   <i type="int" name="NREBOOT">     0</i>
   <i type="int" name="NMIN">     0</i>
   <i name="EREF">      0.00000000</i>
   <separator name="electronic smearing" >
    <i type="int" name="ISMEAR">    -5</i>
    <i name="SIGMA">      0.05000000</i>
    <i name="KSPACING">      0.50000000</i>
    <i type="logical" name="KGAMMA"> T  </i>
   </separator>
   <separator name="electronic projectors" >
    <i type="logical" name="LREAL"> T  </i>
    <v name="ROPT">     -0.00025000     -0.00025000</v>
    <i type="int" name="LMAXPAW">  -100</i>
    <i type="int" name="LMAXMIX">     4</i>
    <i type="logical" name="NLSPLINE"> F  </i>
   </separator>
   <separator name="electronic startup" >
    <i type="int" name="ISTART">     0</i>
    <i type="int" name="ICHARG">     1</i>
    <i type="int" name="INIWAV">     1</i>
   </separator>
   <separator name="electronic spin" >
    <i type="int" name="ISPIN">     2</i>
    <i type="logical" name="LNONCOLLINEAR"> F  </i>
    <v name="MAGMOM">      1.00000000      1.00000000      1.00000000</v>
    <i name="NUPDOWN">     -1.00000000</i>
    <i type="logical" name="LSORBIT"> F  </i>
    <v name="SAXIS">      0.00000000      0.00000000      1.00000000</v>
    <i type="logical" name="LSPIRAL"> F  </i>
    <v name="QSPIRAL">      0.00000000      0.00000000      0.00000000</v>
    <i type="logical" name="LZEROZ"> F  </i>
   </separator>
   <separator name="electronic exchange-correlation" >
    <i type="logical" name="LASPH"> F  </i>
    <i type="logical" name="LMETAGGA"> F  </i>
   </separator>
   <separator name="electronic convergence" >
    <i type="int" name="NELM">   100</i>
    <i type="int" name="NELMDL">     0</i>
    <i type="int" name="NELMIN">     6</i>
    <i name="ENINI">    520.00000000</i>
    <separator name="electronic convergence detail" >
     <i type="logical" name="LDIAG"> T  </i>
     <i type="logical" name="LSUBROT"> T  </i>
     <i name="WEIMIN">      0.00100000</i>
     <i name="EBREAK">      0.00001000</i>
     <i name="DEPER">      0.30000000</i>
     <i type="int" name="NRMM">     4</i>
     <i name="TIME">      0.40000000</i>
    </separator>
   </separator>
   <separator name="electronic mixer" >
    <i name="AMIX">      0.40000000</i>
    <i name="BMIX">      1.00000000</i>
    <i name="AMIN">      0.10000000</i>
    <i name="AMIX_MAG">      1.60000000</i>
    <i name="BMIX_MAG">      1.00000000</i>
    <separator name="electronic mixer details" >
     <i type="int" name="IMIX">     4</i>
     <i type="int" name="MAXMIX">   -45</i>
     <i name="WC">    100.00000000</i>
     <i type="int" name="INIMIX">     1</i>
     <i type="int" name="MIXPRE">     1</i>
     <i type="int" name="MREMOVE">     5</i>
    </separator>
   </separator>
   <separator name="electronic dipolcorrection" >
    <i type="logical" name="LDIPOL"> F  </i>
    <i type="logical" name="LMONO"> F  </i>
    <i type="int" name="IDIPOL">     0</i>
    <i name="EPSILON">      1.00000000</i>
    <v name="DIPOL">   -100.00000000   -100.00000000   -100.00000000</v>
    <i name="EFIELD">      0.00000000</i>
   </separator>
  </separator>
  <separator name="grids" >
   <i type="int" name="NGX">    24</i>
   <i type="int" name="NGY">    24</i>
   <i type="int" name="NGZ">    24</i>
   <i type="int" name="NGXF">    48</i>
   <i type="int" name="NGYF">    48</i>
   <i type="int" name="NGZF">    48</i>
   <i type="logical" name="ADDGRID"> F  </i>
  </separator>
  <separator name="ionic" >
   <i type="int" name="NSW">    99</i>
   <i type="int" name="IBRION">     2</i>
   <i type="int" name="ISIF">     3</i>
   <i name="PSTRESS">      0.00000000</i>
   <i name="EDIFFG">      0.00400000</i>
   <i type="int" name="NFREE">     1</i>
   <i name="POTIM">      0.50000000</i>
   <i name="SMASS">     -3.00000000</i>
   <i name="SCALEE">      1.00000000</i>
  </separator>
  <separator name="ionic md" >
   <i name="TEBEG">      0.00010000</i>
   <i name="TEEND">      0.00010000</i>
   <i type="int" name="NBLOCK">     1</i>
   <i type="int" name="KBLOCK">    99</i>
   <i type="int" name="NPACO">   256</i>
   <i name="APACO">     16.00000000</i>
  </separator>
  <separator name="symmetry" >
   <i type="int" name="ISYM">     2</i>
   <i name="SYMPREC">      0.00001000</i>
  </separator>
  <separator name="dos" >
   <i type="logical" name="LORBIT"> F  </i>
   <v name="RWIGS">     -1.00000000     -1.00000000</v>
   <i type="int" name="NEDOS">   301</i>
   <i name="EMIN">     10.00000000</i>
   <i name="EMAX">    -10.00000000</i>
   <i name="EFERMI">      0.00000000</i>
  </separator>
  <separator name="writing" >
   <i type="int" name="NWRITE">     2</i>
   <i type="logical" name="LWAVE"> F  </i>
   <i type="logical" name="LCHARG"> T  </i>
   <i type="logical" name="LPARD"> F  </i>
   <i type="logical" name="LVTOT"> F  </i>
   <i type="logical" name="LVHAR"> F  </i>
   <i type="logical" name="LELF"> F  </i>
   <i type="logical" name="LOPTICS"> F  </i>
   <v name="STM">      0.00000000      0.00000000      0.00000000      0.00000000      0.00000000      0.00000000      0.00000000</v>
  </separator>
  <separator name="performance" >
   <i type="int" name="NPAR">     1</i>
   <i type="int" name="NSIM">     4</i>
   <i type="int" name="NBLK">    -1</i>
   <i type="logical" name="LPLANE"> T  </i>
   <i type="logical" name="LSCALAPACK"> F  </i>
   <i type="logical" name="LSCAAWARE"> F  </i>
   <i type="logical" name="LSCALU"> F  </i>
   <i type="logical" name="LASYNC"> F  </i>
   <i type="logical" name="LORBITALREAL"> F  </i>
  </separator>
  <separator name="miscellaneous" >
   <i type="int" name="IDIOT">     3</i>
   <i type="logical" name="LMUSIC"> F  </i>
   <v name="POMASS">      7.01000000     16.00000000</v>
   <v name="DARWINR">      0.00000000      0.00000000</v>
   <v name="DARWINV">      1.00000000      1.00000000</v>
   <i type="logical" name="LCORR"> T  </i>
  </separator>
  <i type="logical" name="GGA_COMPAT"> T  </i>
  <i type="logical" name="LBERRY"> F  </i>
  <i type="int" name="ICORELEVEL">     0</i>
  <i type="logical" name="LDAU"> F  </i>
  <i type="int" name="I_CONSTRAINED_M">     0</i>
  <separator name="electronic exchange-correlation" >
   <i type="string" name="GGA">--</i>
   <i type="int" name="VOSKOWN">     0</i>
   <i type="logical" name="LHFCALC"> F  </i>
   <i type="string" name="PRECFOCK"></i>
   <i type="logical" name="LSYMGRAD"> F  </i>
   <i type="logical" name="LHFONE"> F  </i>
   <i type="logical" name="LRHFCALC"> F  </i>
   <i type="logical" name="LTHOMAS"> F  </i>
   <i type="logical" name="LMODELHF"> F  </i>
   <i name="ENCUT4O">     -1.00000000</i>
   <i type="int" name="EXXOEP">     0</i>
   <i type="int" name="FOURORBIT">     0</i>
   <i name="AEXX">      0.00000000</i>
   <i name="HFALPHA">      0.00000000</i>
   <i name="MCALPHA">      0.00000000</i>
   <i name="ALDAX">      1.00000000</i>
   <i name="AGGAX">      1.00000000</i>
   <i name="ALDAC">      1.00000000</i>
   <i name="AGGAC">      1.00000000</i>
   <i type="int" name="NKREDX">     1</i>
   <i type="int" name="NKREDY">     1</i>
   <i type="int" name="NKREDZ">     1</i>
   <i type="logical" name="SHIFTRED"> F  </i>
   <i type="logical" name="ODDONLY"> F  </i>
   <i type="logical" name="EVENONLY"> F  </i>
   <i type="int" name="LMAXFOCK">     0</i>
   <i type="int" name="NMAXFOCKAE">     0</i>
   <i type="logical" name="LFOCKAEDFT"> F  </i>
   <i name="HFSCREEN">      0.00000000</i>
   <i name="HFSCREENC">      0.00000000</i>
   <i type="int" name="NBANDSGWLOW">     0</i>
  </separator>
  <separator name="vdW DFT" >
   <i type="logical" name="LUSE_VDW"> F  </i>
   <i name="Zab_VDW">     -0.84910000</i>
   <i name="PARAM1">      0.12340000</i>
   <i name="PARAM2">      1.00000000</i>
   <i name="PARAM3">      0.00000000</i>
  </separator>
  <separator name="model GW" >
   <i type="int" name="MODEL_GW">     0</i>
   <i name="MODEL_EPS0">      4.89860905</i>
   <i name="MODEL_ALPHA">      1.00000000</i>
  </separator>
  <separator name="linear response parameters" >
   <i type="logical" name="LEPSILON"> F  </i>
   <i type="logical" name="LRPA"> F  </i>
   <i type="logical" name="LNABLA"> F  </i>
   <i type="logical" name="LVEL"> F  </i>
   <i type="int" name="KINTER">     0</i>
   <i name="CSHIFT">      0.10000000</i>
   <i name="OMEGAMAX">     -1.00000000</i>
   <i name="DEG_THRESHOLD">      0.00200000</i>
  </separator>
  <separator name="orbital magnetization" >
   <i type="logical" name="NUCIND"> F  </i>
   <v name="MAGPOS">      0.00000000      0.00000000      0.00000000</v>
   <i type="logical" name="LNICSALL"> T  </i>
   <i type="logical" name="ORBITALMAG"> F  </i>
   <i type="logical" name="LMAGBLOCH"> F  </i>
   <i type="logical" name="LCHIMAG"> F  </i>
   <i type="logical" name="LGAUGE"> T  </i>
   <i type="int" name="MAGATOM">     0</i>
   <v name="MAGDIPOL">      0.00000000      0.00000000      0.00000000</v>
   <v name="AVECCONST">      0.00000000      0.00000000      0.00000000</v>
  </separator>
  <separator name="response functions" >
   <i type="logical" name="LADDER"> F  </i>
   <i type="logical" name="LHARTREE"> T  </i>
   <i type="int" name="IBSE">     0</i>
   <i type="logical" name="LTCTE"> F  </i>
   <i type="logical" name="LTETE"> F  </i>
   <i type="logical" name="LTRIPLET"> F  </i>
   <i type="logical" name="LFXCEPS"> F  </i>
   <i type="logical" name="L2ORDER"> F  </i>
   <i type="logical" name="LUSEW"> F  </i>
   <i name="ENCUTGW">     -2.00000000</i>
   <i name="ENCUTGWSOFT">     -2.00000000</i>
   <i name="ENCUTLF">     -1.00000000</i>
   <i type="int" name="LMAXMP2">    -1</i>
   <i name="SCISSOR">      0.00000000</i>
   <i type="int" name="NOMEGA">     0</i>
   <i type="int" name="NOMEGAR">     0</i>
   <i type="int" name="NBANDSGW">    -1</i>
   <i type="int" name="NBANDSO">    -1</i>
   <i type="int" name="NBANDSV">    -1</i>
   <i type="int" name="NELM">   100</i>
   <i type="int" name="DIM">     3</i>
   <i type="int" name="ANTIRES">     0</i>
   <i name="OMEGAMAX">    -30.00000000</i>
   <i name="OMEGATL">   -200.00000000</i>
   <i type="int" name="OMEGAGRID">     0</i>
   <i name="CSHIFT">     -0.10000000</i>
   <i type="logical" name="SELFENERGY"> F  </i>
   <i type="logical" name="LSPECTRAL"> F  </i>
   <i type="logical" name="ODDONLYGW"> F  </i>
   <i type="logical" name="EVENONLYGW"> F  </i>
   <i type="int" name="NKREDLFX">     1</i>
   <i type="int" name="NKREDLFY">     1</i>
   <i type="int" name="NKREDLFZ">     1</i>
   <i type="int" name="MAXMEM">  1800</i>
   <i type="int" name="TELESCOPE">     0</i>
  </separator>
 </parameters>
 <atominfo>
  <atoms>       3 </atoms>
  <types>       2 </types>
  <array name="atoms" >
   <dimension dim="1">ion</dimension>
   <field type="string">element</field>
   <field type="int">atomtype</field>
   <set>
    <rc><c>Li</c><c>   1</c></rc>
    <rc><c>Li</c><c>   1</c></rc>
    <rc><c>O </c><c>   2</c></rc>
   </set>
  </array>
  <array name="atomtypes" >
   <dimension dim="1">type</dimension>
   <field type="int">atomspertype</field>
   <field type="string">element</field>
   <field>mass</field>
   <field>valence</field>
   <field type="string">pseudopotential</field>
   <set>
    <rc><c>   2</c><c>Li</c><c>      7.01000000</c><c>      1.00000000</c><c>  PAW_PBE Li 17Jan2003                  </c></rc>
    <rc><c>   1</c><c>O </c><c>     16.00000000</c><c>      6.00000000</c><c> PAW_PBE O 08Apr2002                    </c></rc>
   </set>
  </array>
 </atominfo>
 <structure name="initialpos" >
  <crystal>
   <varray name="basis" >
    <v>       2.30500000       2.30500000       0.00000000 </v>
    <v>       0.00000000       2.30500000       2.30500000 </v>
    <v>       2.30500000       0.00000000       2.30500000 </v>
   </varray>
   <i name="volume">     24.49304525 </i>
   <varray name="rec_basis" >
    <v>       0.21691974       0.21691974      -0.21691974 </v>
    <v>      -0.21691974       0.21691974       0.21691974 </v>
    <v>       0.21691974      -0.21691974       0.21691974 </v>
   </varray>
  </crystal>
  <varray name="positions" >
   <v>       0.75000000       0.75000000       0.75000000 </v>
   <v>       0.25000000       0.25000000       0.25000000 </v>
   <v>       0.00000000       0.00000000       0.00000000 </v>
  </varray>
 </structure>
 <calculation>
  <scstep>
   <time name="dav">    1.15    1.16</time>
   <time name="total">    1.43    1.47</time>
   <energy>
    <i name="alphaZ">      9.27443418 </i>
    <i name="ewald">   -305.56705941 </i>
    <i name="hartreedc">   -139.69536461 </i>
    <i name="XCdc">     20.72571592 </i>
    <i name="pawpsdc">    257.07936916 </i>
    <i name="pawaedc">   -247.80739856 </i>
    <i name="eentropy">      0.00000000 </i>
    <i name="bandstr">    -25.64656917 </i>
    <i name="atom">    442.95818076 </i>
    <i name="e_fr_energy">     11.32130826 </i>
    <i name="e_wo_entrp">     11.32130826 </i>
    <i name="e_0_energy">     11.32130826 </i>
   </energy>
  </scstep>
  <scstep>
   <time name="dav">    1.32    1.32</time>
   <time name="total">    1.32    1.40</time>
   <energy>
    <i name="e_fr_energy">    -13.84733825 </i>
    <i name="e_wo_entrp">    -13.84733825 </i>
    <i name="e_0_energy">    -13.84733825 </i>
   </energy>
  </scstep>
  <scstep>
   <time name="dav">    1.26    1.26</time>
   <time name="total">    1.26    1.26</time>
   <energy>
    <i name="e_fr_energy">    -14.56140725 </i>
    <i name="e_wo_entrp">    -14.56140725 </i>
    <i name="e_0_energy">    -14.56140725 </i>
   </energy>
  </scstep>
  <scstep>
   <time name="dav">    1.21    1.21</time>
   <time name="total">    1.21    1.21</time>
   <energy>
    <i name="e_fr_energy">    -14.56257678 </i>
    <i name="e_wo_entrp">    -14.56257678 </i>
    <i name="e_0_energy">    -14.56257678 </i>
   </energy>
  </scstep>
  <scstep>
   <time name="dav">    1.19    1.19</time>
   <time name="total">    1.27    1.27</time>
   <energy>
    <i name="e_fr_energy">    -14.56257990 </i>
    <i name="e_wo_entrp">    -14.56257990 </i>
    <i name="e_0_energy">    -14.56257990 </i>
   </energy>
  </scstep>
  <scstep>
   <time name="diag">    0.23    0.23</time>
   <time name="diis">    0.79    0.79</time>
   <time name="orth">    0.00    0.00</time>
   <time name="total">    1.37    1.37</time>
   <energy>
    <i name="e_fr_energy">    -14.15901601 </i>
    <i name="e_wo_entrp">    -14.15901601 </i>
    <i name="e_0_energy">    -14.15901601 </i>
   </energy>
  </scstep>
  <scstep>
   <time name="diag">    0.23    0.23</time>
   <time name="diis">    0.80    0.80</time>
   <time name="orth">    0.00    0.00</time>
   <time name="total">    1.37    1.51</time>
   <energy>
    <i name="e_fr_energy">    -14.31051553 </i>
    <i name="e_wo_entrp">    -14.31051553 </i>
    <i name="e_0_energy">    -14.31051553 </i>
   </energy>
  </scstep>
  <scstep>
   <time name="diag">    0.22    0.23</time>
   <time name="diis">    0.80    0.80</time>
   <time name="orth">    0.00    0.00</time>
   <time name="total">    1.38    1.38</time>
   <energy>
    <i name="e_fr_energy">    -14.30247210 </i>
    <i name="e_wo_entrp">    -14.30247210 </i>
    <i name="e_0_energy">    -14.30247210 </i>
   </energy>
  </scstep>
  <scstep>
   <time name="diag">    0.22    0.23</time>
   <time name="diis">    0.80    0.80</time>
   <time name="orth">    0.00    0.00</time>
   <time name="total">    1.37    1.37</time>
   <energy>
    <i name="e_fr_energy">    -14.31158648 </i>
    <i name="e_wo_entrp">    -14.31158648 </i>
    <i name="e_0_energy">    -14.31158648 </i>
   </energy>
  </scstep>
  <scstep>
   <time name="diag">    0.23    0.23</time>
   <time name="diis">    0.62    0.62</time>
   <time name="orth">    0.00    0.00</time>
   <time name="total">    1.12    1.24</time>
   <energy>
    <i name="alphaZ">      9.27443418 </i>
    <i name="ewald">   -305.56705941 </i>
    <i name="hartreedc">   -161.32251610 </i>
    <i name="XCdc">     21.35680090 </i>
    <i name="pawpsdc">    311.45746035 </i>
    <i name="pawaedc">   -302.53145373 </i>
    <i name="eentropy">      0.00000000 </i>
    <i name="bandstr">    -29.93750958 </i>
    <i name="atom">    442.95818076 </i>
    <i name="e_fr_energy">    -14.31166264 </i>
    <i name="e_wo_entrp">    -14.31166264 </i>
    <i name="e_0_energy">    -14.31166264 </i>
   </energy>
  </scstep>
  <structure>
   <crystal>
    <varray name="basis" >
     <v>       2.30500000       2.30500000       0.00000000 </v>
     <v>       0.00000000       2.30500000       2.30500000 </v>
     <v>       2.30500000       0.00000000       2.30500000 </v>
    </varray>
    <i name="volume">     24.49304525 </i>
    <varray name="rec_basis" >
     <v>       0.21691974       0.21691974      -0.21691974 </v>
     <v>      -0.21691974       0.21691974       0.21691974 </v>
     <v>       0.21691974      -0.21691974       0.21691974 </v>
    </varray>
   </crystal>
   <varray name="positions" >
    <v>       0.75000000       0.75000000       0.75000000 </v>
    <v>       0.25000000       0.25000000       0.25000000 </v>
    <v>       0.00000000       0.00000000       0.00000000 </v>
   </varray>
  </structure>
  <varray name="forces" >
   <v>      -0.00000000      -0.00000000      -0.00000000 </v>
   <v>       0.00000000       0.00000000       0.00000000 </v>
   <v>      -0.00000000      -0.00000000      -0.00000000 </v>
  </varray>
  <varray name="stress" >
   <v>      16.42360784       0.00000000      -0.00000000 </v>
   <v>      -0.00000000      16.42360784       0.00000000 </v>
   <v>       0.00000000       0.00000000      16.42360784 </v>
  </varray>
  <energy>
   <i name="e_fr_energy">    -14.31166264 </i>
   <i name="e_wo_entrp">    -14.31166264 </i>
   <i name="e_0_energy">      0.00000000 </i>
  </energy>
  <time name="totalsc">   16.26   16.74</time>
 </calculation>
 <calculation>
  <scstep>
   <time name="dav">    1.18    1.18</time>
   <time name="total">    1.53    1.53</time>
   <energy>
    <i name="alphaZ">      9.16299911 </i>
    <i name="ewald">   -304.33829871 </i>
    <i name="hartreedc">   -160.86367033 </i>
    <i name="XCdc">     21.24601002 </i>
    <i name="pawpsdc">    310.10299251 </i>
    <i name="pawaedc">   -301.18402118 </i>
    <i name="eentropy">      0.00000000 </i>
    <i name="bandstr">    -31.40520177 </i>
    <i name="atom">    442.95818076 </i>
    <i name="e_fr_energy">    -14.32100959 </i>
    <i name="e_wo_entrp">    -14.32100959 </i>
    <i name="e_0_energy">    -14.32100959 </i>
   </energy>
  </scstep>
  <scstep>
   <time name="diag">    0.23    0.23</time>
   <time name="diis">    0.78    0.78</time>
   <time name="orth">    0.00    0.00</time>
   <time name="total">    1.36    1.36</time>
   <energy>
    <i name="e_fr_energy">    -14.31369797 </i>
    <i name="e_wo_entrp">    -14.31369797 </i>
    <i name="e_0_energy">    -14.31369797 </i>
   </energy>
  </scstep>
  <scstep>
   <time name="diag">    0.23    0.23</time>
   <time name="diis">    0.47    0.47</time>
   <time name="orth">    0.00    0.00</time>
   <time name="total">    1.05    1.05</time>
   <energy>
    <i name="e_fr_energy">    -14.31338907 </i>
    <i name="e_wo_entrp">    -14.31338907 </i>
    <i name="e_0_energy">    -14.31338907 </i>
   </energy>
  </scstep>
  <scstep>
   <time name="diag">    0.23    0.23</time>
   <time name="diis">    0.47    0.47</time>
   <time name="orth">    0.00    0.00</time>
   <time name="total">    1.04    1.05</time>
   <energy>
    <i name="e_fr_energy">    -14.31336661 </i>
    <i name="e_wo_entrp">    -14.31336661 </i>
    <i name="e_0_energy">    -14.31336661 </i>
   </energy>
  </scstep>
  <scstep>
   <time name="diag">    0.23    0.23</time>
   <time name="diis">    0.33    0.33</time>
   <time name="orth">    0.00    0.00</time>
   <time name="total">    0.91    0.91</time>
   <energy>
    <i name="e_fr_energy">    -14.31334693 </i>
    <i name="e_wo_entrp">    -14.31334693 </i>
    <i name="e_0_energy">    -14.31334693 </i>
   </energy>
  </scstep>
  <scstep>
   <time name="diag">    0.23    0.23</time>
   <time name="diis">    0.43    0.43</time>
   <time name="orth">    0.00    0.00</time>
   <time name="total">    0.93    0.93</time>
   <energy>
    <i name="alphaZ">      9.16299911 </i>
    <i name="ewald">   -304.33829871 </i>
    <i name="hartreedc">   -162.10442479 </i>
    <i name="XCdc">     21.32652434 </i>
    <i name="pawpsdc">    309.53726444 </i>
    <i name="pawaedc">   -300.60763867 </i>
    <i name="eentropy">      0.00000000 </i>
    <i name="bandstr">    -30.24795375 </i>
    <i name="atom">    442.95818076 </i>
    <i name="e_fr_energy">    -14.31334727 </i>
    <i name="e_wo_entrp">    -14.31334727 </i>
    <i name="e_0_energy">    -14.31334727 </i>
   </energy>
  </scstep>
  <structure>
   <crystal>
    <varray name="basis" >
     <v>       2.31430640       2.31430640      -0.00000000 </v>
     <v>       0.00000000       2.31430640       2.31430640 </v>
     <v>       2.31430640       0.00000000       2.31430640 </v>
    </varray>
    <i name="volume">     24.79091543 </i>
    <varray name="rec_basis" >
     <v>       0.21604745       0.21604745      -0.21604745 </v>
     <v>      -0.21604745       0.21604745       0.21604745 </v>
     <v>       0.21604745      -0.21604745       0.21604745 </v>
    </varray>
   </crystal>
   <varray name="positions" >
    <v>       0.75000000       0.75000000       0.75000000 </v>
    <v>       0.25000000       0.25000000       0.25000000 </v>
    <v>       0.00000000      -0.00000000      -0.00000000 </v>
   </varray>
  </structure>
  <varray name="forces" >
   <v>      -0.00000000       0.00000000       0.00000000 </v>
   <v>       0.00000000      -0.00000000      -0.00000000 </v>
   <v>       0.00000000      -0.00000000       0.00000000 </v>
  </varray>
  <varray name="stress" >
   <v>       1.10704465      -0.00000000      -0.00000000 </v>
   <v>      -0.00000000       1.10704465      -0.00000000 </v>
   <v>       0.00000000       0.00000000       1.10704465 </v>
  </varray>
  <energy>
   <i name="e_fr_energy">    -14.31334727 </i>
   <i name="e_wo_entrp">    -14.31334727 </i>
   <i name="e_0_energy">      0.00000000 </i>
  </energy>
  <time name="totalsc">    9.67    9.93</time>
 </calculation>
 <calculation>
  <scstep>
   <time name="dav">    0.87    0.87</time>
   <time name="total">    1.22    1.22</time>
   <energy>
    <i name="alphaZ">      9.15491002 </i>
    <i name="ewald">   -304.24871582 </i>
    <i name="hartreedc">   -162.03833226 </i>
    <i name="XCdc">     21.31632899 </i>
    <i name="pawpsdc">    309.53357143 </i>
    <i name="pawaedc">   -300.60409295 </i>
    <i name="eentropy">      0.00000000 </i>
    <i name="bandstr">    -30.38527556 </i>
    <i name="atom">    442.95818076 </i>
    <i name="e_fr_energy">    -14.31342539 </i>
    <i name="e_wo_entrp">    -14.31342539 </i>
    <i name="e_0_energy">    -14.31342539 </i>
   </energy>
  </scstep>
  <scstep>
   <time name="diag">    0.23    0.23</time>
   <time name="diis">    0.46    0.46</time>
   <time name="orth">    0.00    0.00</time>
   <time name="total">    1.04    1.10</time>
   <energy>
    <i name="e_fr_energy">    -14.31337961 </i>
    <i name="e_wo_entrp">    -14.31337961 </i>
    <i name="e_0_energy">    -14.31337961 </i>
   </energy>
  </scstep>
  <scstep>
   <time name="diag">    0.23    0.23</time>
   <time name="diis">    0.39    0.39</time>
   <time name="orth">    0.00    0.00</time>
   <time name="total">    0.97    0.97</time>
   <energy>
    <i name="e_fr_energy">    -14.31337805 </i>
    <i name="e_wo_entrp">    -14.31337805 </i>
    <i name="e_0_energy">    -14.31337805 </i>
   </energy>
  </scstep>
  <scstep>
   <time name="diag">    0.23    0.23</time>
   <time name="diis">    0.32    0.32</time>
   <time name="orth">    0.00    0.00</time>
   <time name="total">    0.90    0.90</time>
   <energy>
    <i name="e_fr_energy">    -14.31337788 </i>
    <i name="e_wo_entrp">    -14.31337788 </i>
    <i name="e_0_energy">    -14.31337788 </i>
   </energy>
  </scstep>
  <scstep>
   <time name="diag">    0.23    0.23</time>
   <time name="diis">    0.35    0.35</time>
   <time name="orth">    0.00    0.00</time>
   <time name="total">    0.93    0.93</time>
   <energy>
    <i name="e_fr_energy">    -14.31337764 </i>
    <i name="e_wo_entrp">    -14.31337764 </i>
    <i name="e_0_energy">    -14.31337764 </i>
   </energy>
  </scstep>
  <scstep>
   <time name="diag">    0.23    0.23</time>
   <time name="diis">    0.31    0.31</time>
   <time name="orth">    0.00    0.00</time>
   <time name="total">    0.81    0.81</time>
   <energy>
    <i name="alphaZ">      9.15491002 </i>
    <i name="ewald">   -304.24871582 </i>
    <i name="hartreedc">   -162.13510994 </i>
    <i name="XCdc">     21.32266859 </i>
    <i name="pawpsdc">    309.48518371 </i>
    <i name="pawaedc">   -300.55546905 </i>
    <i name="eentropy">      0.00000000 </i>
    <i name="bandstr">    -30.29502585 </i>
    <i name="atom">    442.95818076 </i>
    <i name="e_fr_energy">    -14.31337758 </i>
    <i name="e_wo_entrp">    -14.31337758 </i>
    <i name="e_0_energy">    -14.31337758 </i>
   </energy>
  </scstep>
  <structure>
   <crystal>
    <varray name="basis" >
     <v>       2.31498782       2.31498782      -0.00000000 </v>
     <v>       0.00000000       2.31498782       2.31498782 </v>
     <v>       2.31498782       0.00000000       2.31498782 </v>
    </varray>
    <i name="volume">     24.81282016 </i>
    <varray name="rec_basis" >
     <v>       0.21598386       0.21598386      -0.21598386 </v>
     <v>      -0.21598386       0.21598386       0.21598386 </v>
     <v>       0.21598386      -0.21598386       0.21598386 </v>
    </varray>
   </crystal>
   <varray name="positions" >
    <v>       0.75000000       0.75000000       0.75000000 </v>
    <v>       0.25000000       0.25000000       0.25000000 </v>
    <v>       0.00000000      -0.00000000      -0.00000000 </v>
   </varray>
  </structure>
  <varray name="forces" >
   <v>       0.00000000       0.00000000       0.00000000 </v>
   <v>      -0.00000000      -0.00000000      -0.00000000 </v>
   <v>       0.00000000       0.00000000      -0.00000000 </v>
  </varray>
  <varray name="stress" >
   <v>       1.92476815       0.00000000       0.00000000 </v>
   <v>       0.00000000       1.92476815       0.00000000 </v>
   <v>      -0.00000000       0.00000000       1.92476815 </v>
  </varray>
  <energy>
   <i name="e_fr_energy">    -14.31337758 </i>
   <i name="e_wo_entrp">    -14.31337758 </i>
   <i name="e_0_energy">      0.00000000 </i>
  </energy>
  <time name="totalsc">    8.53    8.59</time>
  <eigenvalues>
   <array>
    <dimension dim="1">band</dimension>
    <dimension dim="2">kpoint</dimension>
    <dimension dim="3">spin</dimension>
    <field>eigene</field>
    <field>occ</field>
    <set>
     <set comment="spin 1">
      <set comment="kpoint 1">
       <r>  -14.5149    1.0000 </r>
       <r>    0.4159    1.0000 </r>
       <r>    0.8521    1.0000 </r>
       <r>    0.8521    1.0000 </r>
       <r>    6.5686    0.0000 </r>
       <r>   12.8513    0.0000 </r>
       <r>   13.0528    0.0000 </r>
       <r>   13.0528    0.0000 </r>
       <r>   18.5534    0.0000 </r>
       <r>   18.5534    0.0000 </r>
      </set>
      <set comment="kpoint 2">
       <r>  -14.3719    1.0000 </r>
       <r>   -0.9361    1.0000 </r>
       <r>    0.2665    1.0000 </r>
       <r>    0.6783    1.0000 </r>
       <r>    8.0844    0.0000 </r>
       <r>   12.0254    0.0000 </r>
       <r>   13.5047    0.0000 </r>
       <r>   14.0629    0.0000 </r>
       <r>   15.9833    0.0000 </r>
       <r>   19.6045    0.0000 </r>
      </set>
      <set comment="kpoint 3">
       <r>  -14.2821    1.0000 </r>
       <r>   -1.6750    1.0000 </r>
       <r>    0.3010    1.0000 </r>
       <r>    0.3339    1.0000 </r>
       <r>    9.2768    0.0000 </r>
       <r>   11.1577    0.0000 </r>
       <r>   13.2332    0.0000 </r>
       <r>   13.6792    0.0000 </r>
       <r>   18.0627    0.0000 </r>
       <r>   19.2099    0.0000 </r>
      </set>
      <set comment="kpoint 4">
       <r>  -14.4342    1.0000 </r>
       <r>   -0.2690    1.0000 </r>
       <r>    0.4835    1.0000 </r>
       <r>    0.6297    1.0000 </r>
       <r>    7.2330    0.0000 </r>
       <r>   12.8763    0.0000 </r>
       <r>   13.1964    0.0000 </r>
       <r>   13.8681    0.0000 </r>
       <r>   15.8023    0.0000 </r>
       <r>   20.2888    0.0000 </r>
      </set>
      <set comment="kpoint 5">
       <r>  -14.3205    1.0000 </r>
       <r>   -0.7448    1.0000 </r>
       <r>    0.0019    1.0000 </r>
       <r>    0.0946    1.0000 </r>
       <r>    7.1470    0.0000 </r>
       <r>   13.1377    0.0000 </r>
       <r>   13.7013    0.0000 </r>
       <r>   14.8065    0.0000 </r>
       <r>   15.5858    0.0000 </r>
       <r>   22.3081    0.0000 </r>
      </set>
      <set comment="kpoint 6">
       <r>  -14.2327    1.0000 </r>
       <r>   -1.1066    1.0000 </r>
       <r>   -0.4253    1.0000 </r>
       <r>   -0.2438    1.0000 </r>
       <r>    7.8468    0.0000 </r>
       <r>   11.8069    0.0000 </r>
       <r>   14.5034    0.0000 </r>
       <r>   15.0164    0.0000 </r>
       <r>   17.8302    0.0000 </r>
       <r>   20.0864    0.0000 </r>
      </set>
      <set comment="kpoint 7">
       <r>  -14.2884    1.0000 </r>
       <r>   -1.2668    1.0000 </r>
       <r>   -0.0922    1.0000 </r>
       <r>    0.2906    1.0000 </r>
       <r>    8.3713    0.0000 </r>
       <r>   11.6063    0.0000 </r>
       <r>   13.9642    0.0000 </r>
       <r>   14.4194    0.0000 </r>
       <r>   16.6726    0.0000 </r>
       <r>   20.2002    0.0000 </r>
      </set>
      <set comment="kpoint 8">
       <r>  -14.2406    1.0000 </r>
       <r>   -0.7837    1.0000 </r>
       <r>   -0.4462    1.0000 </r>
       <r>   -0.3145    1.0000 </r>
       <r>    6.4857    0.0000 </r>
       <r>   13.6747    0.0000 </r>
       <r>   14.2568    0.0000 </r>
       <r>   15.3616    0.0000 </r>
       <r>   16.6960    0.0000 </r>
       <r>   21.6463    0.0000 </r>
      </set>
      <set comment="kpoint 9">
       <r>  -14.3320    1.0000 </r>
       <r>   -1.4889    1.0000 </r>
       <r>    0.5433    1.0000 </r>
       <r>    0.5433    1.0000 </r>
       <r>    8.8796    0.0000 </r>
       <r>   11.7725    0.0000 </r>
       <r>   13.1298    0.0000 </r>
       <r>   13.1298    0.0000 </r>
       <r>   18.2099    0.0000 </r>
       <r>   18.2099    0.0000 </r>
      </set>
      <set comment="kpoint 10">
       <r>  -14.2520    1.0000 </r>
       <r>   -1.4145    1.0000 </r>
       <r>   -0.2801    1.0000 </r>
       <r>    0.1759    1.0000 </r>
       <r>    8.6891    0.0000 </r>
       <r>   11.2972    0.0000 </r>
       <r>   13.9482    0.0000 </r>
       <r>   14.5635    0.0000 </r>
       <r>   18.3813    0.0000 </r>
       <r>   18.6360    0.0000 </r>
      </set>
     </set>
     <set comment="spin 2">
      <set comment="kpoint 1">
       <r>  -14.5149    1.0000 </r>
       <r>    0.4159    1.0000 </r>
       <r>    0.8521    1.0000 </r>
       <r>    0.8521    1.0000 </r>
       <r>    6.5685    0.0000 </r>
       <r>   12.8513    0.0000 </r>
       <r>   13.0528    0.0000 </r>
       <r>   13.0528    0.0000 </r>
       <r>   18.5534    0.0000 </r>
       <r>   18.5534    0.0000 </r>
      </set>
      <set comment="kpoint 2">
       <r>  -14.3719    1.0000 </r>
       <r>   -0.9361    1.0000 </r>
       <r>    0.2665    1.0000 </r>
       <r>    0.6783    1.0000 </r>
       <r>    8.0844    0.0000 </r>
       <r>   12.0254    0.0000 </r>
       <r>   13.5047    0.0000 </r>
       <r>   14.0629    0.0000 </r>
       <r>   15.9834    0.0000 </r>
       <r>   19.6045    0.0000 </r>
      </set>
      <set comment="kpoint 3">
       <r>  -14.2821    1.0000 </r>
       <r>   -1.6750    1.0000 </r>
       <r>    0.3010    1.0000 </r>
       <r>    0.3339    1.0000 </r>
       <r>    9.2768    0.0000 </r>
       <r>   11.1577    0.0000 </r>
       <r>   13.2332    0.0000 </r>
       <r>   13.6792    0.0000 </r>
       <r>   18.0627    0.0000 </r>
       <r>   19.2099    0.0000 </r>
      </set>
      <set comment="kpoint 4">
       <r>  -14.4342    1.0000 </r>
       <r>   -0.2690    1.0000 </r>
       <r>    0.4835    1.0000 </r>
       <r>    0.6297    1.0000 </r>
       <r>    7.2330    0.0000 </r>
       <r>   12.8763    0.0000 </r>
       <r>   13.1964    0.0000 </r>
       <r>   13.8681    0.0000 </r>
       <r>   15.8023    0.0000 </r>
       <r>   20.2889    0.0000 </r>
      </set>
      <set comment="kpoint 5">
       <r>  -14.3205    1.0000 </r>
       <r>   -0.7448    1.0000 </r>
       <r>    0.0019    1.0000 </r>
       <r>    0.0946    1.0000 </r>
       <r>    7.1470    0.0000 </r>
       <r>   13.1377    0.0000 </r>
       <r>   13.7013    0.0000 </r>
       <r>   14.8065    0.0000 </r>
       <r>   15.5858    0.0000 </r>
       <r>   22.3083    0.0000 </r>
      </set>
      <set comment="kpoint 6">
       <r>  -14.2327    1.0000 </r>
       <r>   -1.1066    1.0000 </r>
       <r>   -0.4253    1.0000 </r>
       <r>   -0.2438    1.0000 </r>
       <r>    7.8468    0.0000 </r>
       <r>   11.8069    0.0000 </r>
       <r>   14.5034    0.0000 </r>
       <r>   15.0164    0.0000 </r>
       <r>   17.8302    0.0000 </r>
       <r>   20.0864    0.0000 </r>
      </set>
      <set comment="kpoint 7">
       <r>  -14.2884    1.0000 </r>
       <r>   -1.2668    1.0000 </r>
       <r>   -0.0922    1.0000 </r>
       <r>    0.2906    1.0000 </r>
       <r>    8.3713    0.0000 </r>
       <r>   11.6063    0.0000 </r>
       <r>   13.9642    0.0000 </r>
       <r>   14.4194    0.0000 </r>
       <r>   16.6726    0.0000 </r>
       <r>   20.2002    0.0000 </r>
      </set>
      <set comment="kpoint 8">
       <r>  -14.2406    1.0000 </r>
       <r>   -0.7837    1.0000 </r>
       <r>   -0.4462    1.0000 </r>
       <r>   -0.3145    1.0000 </r>
       <r>    6.4857    0.0000 </r>
       <r>   13.6747    0.0000 </r>
       <r>   14.2568    0.0000 </r>
       <r>   15.3616    0.0000 </r>
       <r>   16.6960    0.0000 </r>
       <r>   21.6463    0.0000 </r>
      </set>
      <set comment="kpoint 9">
       <r>  -14.3320    1.0000 </r>
       <r>   -1.4889    1.0000 </r>
       <r>    0.5433    1.0000 </r>
       <r>    0.5433    1.0000 </r>
       <r>    8.8796    0.0000 </r>
       <r>   11.7725    0.0000 </r>
       <r>   13.1298    0.0000 </r>
       <r>   13.1298    0.0000 </r>
       <r>   18.2099    0.0000 </r>
       <r>   18.2099    0.0000 </r>
      </set>
      <set comment="kpoint 10">
       <r>  -14.2520    1.0000 </r>
       <r>   -1.4145    1.0000 </r>
       <r>   -0.2801    1.0000 </r>
       <r>    0.1759    1.0000 </r>
       <r>    8.6890    0.0000 </r>
       <r>   11.2972    0.0000 </r>
       <r>   13.9482    0.0000 </r>
       <r>   14.5635    0.0000 </r>
       <r>   18.3813    0.0000 </r>
       <r>   18.6360    0.0000 </r>
      </set>
     </set>
    </set>
   </array>
  </eigenvalues>
  <separator name="orbital magnetization" >
   <v name="MAGDIPOLOUT">      0.00000000      0.00000000      0.00000000</v>
  </separator>
  <dos>
   <i name="efermi">      0.85879747 </i>
   <total>
    <array>
     <dimension dim="1">gridpoints</dimension>
     <dimension dim="2">spin</dimension>
     <field>energy</field>
     <field>total</field>
     <field>integrated</field>
     <set>
      <set comment="spin 1">
       <r>   -16.3560     0.0000     0.0000 </r>
       <r>   -16.2210     0.0000     0.0000 </r>
       <r>   -16.0860     0.0000     0.0000 </r>
       <r>   -15.9510     0.0000     0.0000 </r>
       <r>   -15.8160     0.0000     0.0000 </r>
       <r>   -15.6810     0.0000     0.0000 </r>
       <r>   -15.5459     0.0000     0.0000 </r>
       <r>   -15.4109     0.0000     0.0000 </r>
       <r>   -15.2759     0.0000     0.0000 </r>
       <r>   -15.1409     0.0000     0.0000 </r>
       <r>   -15.0059     0.0000     0.0000 </r>
       <r>   -14.8708     0.0000     0.0000 </r>
       <r>   -14.7358     0.0000     0.0000 </r>
       <r>   -14.6008     0.0000     0.0000 </r>
       <r>   -14.4658     0.7544     0.0288 </r>
       <r>   -14.3308     3.1828     0.2576 </r>
       <r>   -14.1958     0.0000     1.0000 </r>
       <r>   -14.0607     0.0000     1.0000 </r>
       <r>   -13.9257     0.0000     1.0000 </r>
       <r>   -13.7907     0.0000     1.0000 </r>
       <r>   -13.6557     0.0000     1.0000 </r>
       <r>   -13.5207     0.0000     1.0000 </r>
       <r>   -13.3856     0.0000     1.0000 </r>
       <r>   -13.2506     0.0000     1.0000 </r>
       <r>   -13.1156     0.0000     1.0000 </r>
       <r>   -12.9806     0.0000     1.0000 </r>
       <r>   -12.8456     0.0000     1.0000 </r>
       <r>   -12.7105     0.0000     1.0000 </r>
       <r>   -12.5755     0.0000     1.0000 </r>
       <r>   -12.4405     0.0000     1.0000 </r>
       <r>   -12.3055     0.0000     1.0000 </r>
       <r>   -12.1705     0.0000     1.0000 </r>
       <r>   -12.0355     0.0000     1.0000 </r>
       <r>   -11.9004     0.0000     1.0000 </r>
       <r>   -11.7654     0.0000     1.0000 </r>
       <r>   -11.6304     0.0000     1.0000 </r>
       <r>   -11.4954     0.0000     1.0000 </r>
       <r>   -11.3604     0.0000     1.0000 </r>
       <r>   -11.2253     0.0000     1.0000 </r>
       <r>   -11.0903     0.0000     1.0000 </r>
       <r>   -10.9553     0.0000     1.0000 </r>
       <r>   -10.8203     0.0000     1.0000 </r>
       <r>   -10.6853     0.0000     1.0000 </r>
       <r>   -10.5503     0.0000     1.0000 </r>
       <r>   -10.4152     0.0000     1.0000 </r>
       <r>   -10.2802     0.0000     1.0000 </r>
       <r>   -10.1452     0.0000     1.0000 </r>
       <r>   -10.0102     0.0000     1.0000 </r>
       <r>    -9.8752     0.0000     1.0000 </r>
       <r>    -9.7401     0.0000     1.0000 </r>
       <r>    -9.6051     0.0000     1.0000 </r>
       <r>    -9.4701     0.0000     1.0000 </r>
       <r>    -9.3351     0.0000     1.0000 </r>
       <r>    -9.2001     0.0000     1.0000 </r>
       <r>    -9.0651     0.0000     1.0000 </r>
       <r>    -8.9300     0.0000     1.0000 </r>
       <r>    -8.7950     0.0000     1.0000 </r>
       <r>    -8.6600     0.0000     1.0000 </r>
       <r>    -8.5250     0.0000     1.0000 </r>
       <r>    -8.3900     0.0000     1.0000 </r>
       <r>    -8.2549     0.0000     1.0000 </r>
       <r>    -8.1199     0.0000     1.0000 </r>
       <r>    -7.9849     0.0000     1.0000 </r>
       <r>    -7.8499     0.0000     1.0000 </r>
       <r>    -7.7149     0.0000     1.0000 </r>
       <r>    -7.5799     0.0000     1.0000 </r>
       <r>    -7.4448     0.0000     1.0000 </r>
       <r>    -7.3098     0.0000     1.0000 </r>
       <r>    -7.1748     0.0000     1.0000 </r>
       <r>    -7.0398     0.0000     1.0000 </r>
       <r>    -6.9048     0.0000     1.0000 </r>
       <r>    -6.7697     0.0000     1.0000 </r>
       <r>    -6.6347     0.0000     1.0000 </r>
       <r>    -6.4997     0.0000     1.0000 </r>
       <r>    -6.3647     0.0000     1.0000 </r>
       <r>    -6.2297     0.0000     1.0000 </r>
       <r>    -6.0946     0.0000     1.0000 </r>
       <r>    -5.9596     0.0000     1.0000 </r>
       <r>    -5.8246     0.0000     1.0000 </r>
       <r>    -5.6896     0.0000     1.0000 </r>
       <r>    -5.5546     0.0000     1.0000 </r>
       <r>    -5.4196     0.0000     1.0000 </r>
       <r>    -5.2845     0.0000     1.0000 </r>
       <r>    -5.1495     0.0000     1.0000 </r>
       <r>    -5.0145     0.0000     1.0000 </r>
       <r>    -4.8795     0.0000     1.0000 </r>
       <r>    -4.7445     0.0000     1.0000 </r>
       <r>    -4.6094     0.0000     1.0000 </r>
       <r>    -4.4744     0.0000     1.0000 </r>
       <r>    -4.3394     0.0000     1.0000 </r>
       <r>    -4.2044     0.0000     1.0000 </r>
       <r>    -4.0694     0.0000     1.0000 </r>
       <r>    -3.9344     0.0000     1.0000 </r>
       <r>    -3.7993     0.0000     1.0000 </r>
       <r>    -3.6643     0.0000     1.0000 </r>
       <r>    -3.5293     0.0000     1.0000 </r>
       <r>    -3.3943     0.0000     1.0000 </r>
       <r>    -3.2593     0.0000     1.0000 </r>
       <r>    -3.1242     0.0000     1.0000 </r>
       <r>    -2.9892     0.0000     1.0000 </r>
       <r>    -2.8542     0.0000     1.0000 </r>
       <r>    -2.7192     0.0000     1.0000 </r>
       <r>    -2.5842     0.0000     1.0000 </r>
       <r>    -2.4492     0.0000     1.0000 </r>
       <r>    -2.3141     0.0000     1.0000 </r>
       <r>    -2.1791     0.0000     1.0000 </r>
       <r>    -2.0441     0.0000     1.0000 </r>
       <r>    -1.9091     0.0000     1.0000 </r>
       <r>    -1.7741     0.0000     1.0000 </r>
       <r>    -1.6390     0.2697     1.0121 </r>
       <r>    -1.5040     0.4852     1.0650 </r>
       <r>    -1.3690     0.9088     1.1487 </r>
       <r>    -1.2340     1.3503     1.3125 </r>
       <r>    -1.0990     1.0523     1.5191 </r>
       <r>    -0.9640     0.8774     1.6493 </r>
       <r>    -0.8289     0.7132     1.7566 </r>
       <r>    -0.6939     0.2927     1.8533 </r>
       <r>    -0.5589     0.2386     1.8891 </r>
       <r>    -0.4239     1.4750     2.0207 </r>
       <r>    -0.2889     2.2152     2.2429 </r>
       <r>    -0.1538     1.8960     2.5444 </r>
       <r>    -0.0188     1.8300     2.7952 </r>
       <r>     0.1162     1.7949     3.0409 </r>
       <r>     0.2512     2.1170     3.2958 </r>
       <r>     0.3862     1.7060     3.5843 </r>
       <r>     0.5213     0.9761     3.7682 </r>
       <r>     0.6563     1.3639     3.8985 </r>
       <r>     0.7913     0.3150     3.9777 </r>
       <r>     0.9263     0.0000     4.0000 </r>
       <r>     1.0613     0.0000     4.0000 </r>
       <r>     1.1963     0.0000     4.0000 </r>
       <r>     1.3314     0.0000     4.0000 </r>
       <r>     1.4664     0.0000     4.0000 </r>
       <r>     1.6014     0.0000     4.0000 </r>
       <r>     1.7364     0.0000     4.0000 </r>
       <r>     1.8714     0.0000     4.0000 </r>
       <r>     2.0065     0.0000     4.0000 </r>
       <r>     2.1415     0.0000     4.0000 </r>
       <r>     2.2765     0.0000     4.0000 </r>
       <r>     2.4115     0.0000     4.0000 </r>
       <r>     2.5465     0.0000     4.0000 </r>
       <r>     2.6815     0.0000     4.0000 </r>
       <r>     2.8166     0.0000     4.0000 </r>
       <r>     2.9516     0.0000     4.0000 </r>
       <r>     3.0866     0.0000     4.0000 </r>
       <r>     3.2216     0.0000     4.0000 </r>
       <r>     3.3566     0.0000     4.0000 </r>
       <r>     3.4917     0.0000     4.0000 </r>
       <r>     3.6267     0.0000     4.0000 </r>
       <r>     3.7617     0.0000     4.0000 </r>
       <r>     3.8967     0.0000     4.0000 </r>
       <r>     4.0317     0.0000     4.0000 </r>
       <r>     4.1667     0.0000     4.0000 </r>
       <r>     4.3018     0.0000     4.0000 </r>
       <r>     4.4368     0.0000     4.0000 </r>
       <r>     4.5718     0.0000     4.0000 </r>
       <r>     4.7068     0.0000     4.0000 </r>
       <r>     4.8418     0.0000     4.0000 </r>
       <r>     4.9769     0.0000     4.0000 </r>
       <r>     5.1119     0.0000     4.0000 </r>
       <r>     5.2469     0.0000     4.0000 </r>
       <r>     5.3819     0.0000     4.0000 </r>
       <r>     5.5169     0.0000     4.0000 </r>
       <r>     5.6519     0.0000     4.0000 </r>
       <r>     5.7870     0.0000     4.0000 </r>
       <r>     5.9220     0.0000     4.0000 </r>
       <r>     6.0570     0.0000     4.0000 </r>
       <r>     6.1920     0.0000     4.0000 </r>
       <r>     6.3270     0.0000     4.0000 </r>
       <r>     6.4621     0.0000     4.0000 </r>
       <r>     6.5971     0.1238     4.0253 </r>
       <r>     6.7321     0.1590     4.0444 </r>
       <r>     6.8671     0.1974     4.0684 </r>
       <r>     7.0021     0.2392     4.0978 </r>
       <r>     7.1372     0.2843     4.1331 </r>
       <r>     7.2722     0.3323     4.1990 </r>
       <r>     7.4072     0.3519     4.2452 </r>
       <r>     7.5422     0.3698     4.2939 </r>
       <r>     7.6772     0.3859     4.3450 </r>
       <r>     7.8122     0.4003     4.3981 </r>
       <r>     7.9473     0.5323     4.4885 </r>
       <r>     8.0823     0.5333     4.5606 </r>
       <r>     8.2173     0.5751     4.6353 </r>
       <r>     8.3523     0.6234     4.7162 </r>
       <r>     8.4873     0.5290     4.7952 </r>
       <r>     8.6224     0.3825     4.8572 </r>
       <r>     8.7574     0.2689     4.8991 </r>
       <r>     8.8924     0.2244     4.9322 </r>
       <r>     9.0274     0.1913     4.9604 </r>
       <r>     9.1624     0.1410     4.9831 </r>
       <r>     9.2974     0.0000     5.0000 </r>
       <r>     9.4325     0.0000     5.0000 </r>
       <r>     9.5675     0.0000     5.0000 </r>
       <r>     9.7025     0.0000     5.0000 </r>
       <r>     9.8375     0.0000     5.0000 </r>
       <r>     9.9725     0.0000     5.0000 </r>
       <r>    10.1076     0.0000     5.0000 </r>
       <r>    10.2426     0.0000     5.0000 </r>
       <r>    10.3776     0.0000     5.0000 </r>
       <r>    10.5126     0.0000     5.0000 </r>
       <r>    10.6476     0.0000     5.0000 </r>
       <r>    10.7826     0.0000     5.0000 </r>
       <r>    10.9177     0.0000     5.0000 </r>
       <r>    11.0527     0.0000     5.0000 </r>
       <r>    11.1877     0.1836     5.0081 </r>
       <r>    11.3227     0.4534     5.0519 </r>
       <r>    11.4577     0.7387     5.1338 </r>
       <r>    11.5928     0.9042     5.2460 </r>
       <r>    11.7278     0.8437     5.3647 </r>
       <r>    11.8628     0.4160     5.4761 </r>
       <r>    11.9978     0.3649     5.5288 </r>
       <r>    12.1328     0.3553     5.5769 </r>
       <r>    12.2679     0.3536     5.6247 </r>
       <r>    12.4029     0.3496     5.6722 </r>
       <r>    12.5379     0.3434     5.7190 </r>
       <r>    12.6729     0.3350     5.7649 </r>
       <r>    12.8079     0.3244     5.8094 </r>
       <r>    12.9429     0.2664     5.8882 </r>
       <r>    13.0780     0.4573     5.9337 </r>
       <r>    13.2130     0.8715     6.0237 </r>
       <r>    13.3480     0.8664     6.1417 </r>
       <r>    13.4830     0.9229     6.2629 </r>
       <r>    13.6180     1.0253     6.3937 </r>
       <r>    13.7531     1.0362     6.5483 </r>
       <r>    13.8881     1.2105     6.6951 </r>
       <r>    14.0231     1.2650     6.8766 </r>
       <r>    14.1581     1.2589     7.0456 </r>
       <r>    14.2931     1.3749     7.2325 </r>
       <r>    14.4281     1.3174     7.4093 </r>
       <r>    14.5632     0.6267     7.5644 </r>
       <r>    14.6982     0.6294     7.6494 </r>
       <r>    14.8332     0.6300     7.7339 </r>
       <r>    14.9682     0.5911     7.8166 </r>
       <r>    15.1032     0.4372     7.9106 </r>
       <r>    15.2383     0.2916     7.9595 </r>
       <r>    15.3733     0.0000     8.0000 </r>
       <r>    15.5083     0.0000     8.0000 </r>
       <r>    15.6433     0.1845     8.0090 </r>
       <r>    15.7783     0.3269     8.0433 </r>
       <r>    15.9133     0.4007     8.0972 </r>
       <r>    16.0484     0.3102     8.1428 </r>
       <r>    16.1834     0.3085     8.1845 </r>
       <r>    16.3184     0.3089     8.2262 </r>
       <r>    16.4534     0.3112     8.2680 </r>
       <r>    16.5884     0.3154     8.3103 </r>
       <r>    16.7235     0.3263     8.3646 </r>
       <r>    16.8585     0.3467     8.4101 </r>
       <r>    16.9935     0.3651     8.4582 </r>
       <r>    17.1285     0.3813     8.5086 </r>
       <r>    17.2635     0.3954     8.5610 </r>
       <r>    17.3985     0.4074     8.6153 </r>
       <r>    17.5336     0.4172     8.6710 </r>
       <r>    17.6686     0.4250     8.7278 </r>
       <r>    17.8036     0.4306     8.7856 </r>
       <r>    17.9386     0.4276     8.8687 </r>
       <r>    18.0736     0.4910     8.9275 </r>
       <r>    18.2087     0.2146     8.9767 </r>
       <r>    18.3437     0.0521     8.9938 </r>
       <r>    18.4787     0.0299     8.9976 </r>
       <r>    18.6137     0.0572     9.0110 </r>
       <r>    18.7487     0.1181     9.0225 </r>
       <r>    18.8838     0.1839     9.0429 </r>
       <r>    19.0188     0.2482     9.0721 </r>
       <r>    19.1538     0.3110     9.1099 </r>
       <r>    19.2888     0.3662     9.1598 </r>
       <r>    19.4238     0.4085     9.2122 </r>
       <r>    19.5588     0.4410     9.2696 </r>
       <r>    19.6939     0.4836     9.3317 </r>
       <r>    19.8289     0.5181     9.3996 </r>
       <r>    19.9639     0.5326     9.4707 </r>
       <r>    20.0989     0.9032     9.5708 </r>
       <r>    20.2339     0.3553     9.6540 </r>
       <r>    20.3690     0.2554     9.6932 </r>
       <r>    20.5040     0.2399     9.7266 </r>
       <r>    20.6390     0.2247     9.7580 </r>
       <r>    20.7740     0.2099     9.7873 </r>
       <r>    20.9090     0.1955     9.8147 </r>
       <r>    21.0440     0.1815     9.8401 </r>
       <r>    21.1791     0.1678     9.8637 </r>
       <r>    21.3141     0.1545     9.8854 </r>
       <r>    21.4491     0.1416     9.9054 </r>
       <r>    21.5841     0.1291     9.9237 </r>
       <r>    21.7191     0.1185     9.9523 </r>
       <r>    21.8542     0.1003     9.9670 </r>
       <r>    21.9892     0.0831     9.9794 </r>
       <r>    22.1242     0.0671     9.9895 </r>
       <r>    22.2592     0.0521     9.9976 </r>
       <r>    22.3942     0.0000    10.0000 </r>
       <r>    22.5292     0.0000    10.0000 </r>
       <r>    22.6643     0.0000    10.0000 </r>
       <r>    22.7993     0.0000    10.0000 </r>
       <r>    22.9343     0.0000    10.0000 </r>
       <r>    23.0693     0.0000    10.0000 </r>
       <r>    23.2043     0.0000    10.0000 </r>
       <r>    23.3394     0.0000    10.0000 </r>
       <r>    23.4744     0.0000    10.0000 </r>
       <r>    23.6094     0.0000    10.0000 </r>
       <r>    23.7444     0.0000    10.0000 </r>
       <r>    23.8794     0.0000    10.0000 </r>
       <r>    24.0144     0.0000    10.0000 </r>
       <r>    24.1495     0.0000    10.0000 </r>
      </set>
      <set comment="spin 2">
       <r>   -16.3560     0.0000     0.0000 </r>
       <r>   -16.2210     0.0000     0.0000 </r>
       <r>   -16.0860     0.0000     0.0000 </r>
       <r>   -15.9510     0.0000     0.0000 </r>
       <r>   -15.8160     0.0000     0.0000 </r>
       <r>   -15.6810     0.0000     0.0000 </r>
       <r>   -15.5459     0.0000     0.0000 </r>
       <r>   -15.4109     0.0000     0.0000 </r>
       <r>   -15.2759     0.0000     0.0000 </r>
       <r>   -15.1409     0.0000     0.0000 </r>
       <r>   -15.0059     0.0000     0.0000 </r>
       <r>   -14.8708     0.0000     0.0000 </r>
       <r>   -14.7358     0.0000     0.0000 </r>
       <r>   -14.6008     0.0000     0.0000 </r>
       <r>   -14.4658     0.7545     0.0288 </r>
       <r>   -14.3308     3.1831     0.2576 </r>
       <r>   -14.1958     0.0000     1.0000 </r>
       <r>   -14.0607     0.0000     1.0000 </r>
       <r>   -13.9257     0.0000     1.0000 </r>
       <r>   -13.7907     0.0000     1.0000 </r>
       <r>   -13.6557     0.0000     1.0000 </r>
       <r>   -13.5207     0.0000     1.0000 </r>
       <r>   -13.3856     0.0000     1.0000 </r>
       <r>   -13.2506     0.0000     1.0000 </r>
       <r>   -13.1156     0.0000     1.0000 </r>
       <r>   -12.9806     0.0000     1.0000 </r>
       <r>   -12.8456     0.0000     1.0000 </r>
       <r>   -12.7105     0.0000     1.0000 </r>
       <r>   -12.5755     0.0000     1.0000 </r>
       <r>   -12.4405     0.0000     1.0000 </r>
       <r>   -12.3055     0.0000     1.0000 </r>
       <r>   -12.1705     0.0000     1.0000 </r>
       <r>   -12.0355     0.0000     1.0000 </r>
       <r>   -11.9004     0.0000     1.0000 </r>
       <r>   -11.7654     0.0000     1.0000 </r>
       <r>   -11.6304     0.0000     1.0000 </r>
       <r>   -11.4954     0.0000     1.0000 </r>
       <r>   -11.3604     0.0000     1.0000 </r>
       <r>   -11.2253     0.0000     1.0000 </r>
       <r>   -11.0903     0.0000     1.0000 </r>
       <r>   -10.9553     0.0000     1.0000 </r>
       <r>   -10.8203     0.0000     1.0000 </r>
       <r>   -10.6853     0.0000     1.0000 </r>
       <r>   -10.5503     0.0000     1.0000 </r>
       <r>   -10.4152     0.0000     1.0000 </r>
       <r>   -10.2802     0.0000     1.0000 </r>
       <r>   -10.1452     0.0000     1.0000 </r>
       <r>   -10.0102     0.0000     1.0000 </r>
       <r>    -9.8752     0.0000     1.0000 </r>
       <r>    -9.7401     0.0000     1.0000 </r>
       <r>    -9.6051     0.0000     1.0000 </r>
       <r>    -9.4701     0.0000     1.0000 </r>
       <r>    -9.3351     0.0000     1.0000 </r>
       <r>    -9.2001     0.0000     1.0000 </r>
       <r>    -9.0651     0.0000     1.0000 </r>
       <r>    -8.9300     0.0000     1.0000 </r>
       <r>    -8.7950     0.0000     1.0000 </r>
       <r>    -8.6600     0.0000     1.0000 </r>
       <r>    -8.5250     0.0000     1.0000 </r>
       <r>    -8.3900     0.0000     1.0000 </r>
       <r>    -8.2549     0.0000     1.0000 </r>
       <r>    -8.1199     0.0000     1.0000 </r>
       <r>    -7.9849     0.0000     1.0000 </r>
       <r>    -7.8499     0.0000     1.0000 </r>
       <r>    -7.7149     0.0000     1.0000 </r>
       <r>    -7.5799     0.0000     1.0000 </r>
       <r>    -7.4448     0.0000     1.0000 </r>
       <r>    -7.3098     0.0000     1.0000 </r>
       <r>    -7.1748     0.0000     1.0000 </r>
       <r>    -7.0398     0.0000     1.0000 </r>
       <r>    -6.9048     0.0000     1.0000 </r>
       <r>    -6.7697     0.0000     1.0000 </r>
       <r>    -6.6347     0.0000     1.0000 </r>
       <r>    -6.4997     0.0000     1.0000 </r>
       <r>    -6.3647     0.0000     1.0000 </r>
       <r>    -6.2297     0.0000     1.0000 </r>
       <r>    -6.0946     0.0000     1.0000 </r>
       <r>    -5.9596     0.0000     1.0000 </r>
       <r>    -5.8246     0.0000     1.0000 </r>
       <r>    -5.6896     0.0000     1.0000 </r>
       <r>    -5.5546     0.0000     1.0000 </r>
       <r>    -5.4196     0.0000     1.0000 </r>
       <r>    -5.2845     0.0000     1.0000 </r>
       <r>    -5.1495     0.0000     1.0000 </r>
       <r>    -5.0145     0.0000     1.0000 </r>
       <r>    -4.8795     0.0000     1.0000 </r>
       <r>    -4.7445     0.0000     1.0000 </r>
       <r>    -4.6094     0.0000     1.0000 </r>
       <r>    -4.4744     0.0000     1.0000 </r>
       <r>    -4.3394     0.0000     1.0000 </r>
       <r>    -4.2044     0.0000     1.0000 </r>
       <r>    -4.0694     0.0000     1.0000 </r>
       <r>    -3.9344     0.0000     1.0000 </r>
       <r>    -3.7993     0.0000     1.0000 </r>
       <r>    -3.6643     0.0000     1.0000 </r>
       <r>    -3.5293     0.0000     1.0000 </r>
       <r>    -3.3943     0.0000     1.0000 </r>
       <r>    -3.2593     0.0000     1.0000 </r>
       <r>    -3.1242     0.0000     1.0000 </r>
       <r>    -2.9892     0.0000     1.0000 </r>
       <r>    -2.8542     0.0000     1.0000 </r>
       <r>    -2.7192     0.0000     1.0000 </r>
       <r>    -2.5842     0.0000     1.0000 </r>
       <r>    -2.4492     0.0000     1.0000 </r>
       <r>    -2.3141     0.0000     1.0000 </r>
       <r>    -2.1791     0.0000     1.0000 </r>
       <r>    -2.0441     0.0000     1.0000 </r>
       <r>    -1.9091     0.0000     1.0000 </r>
       <r>    -1.7741     0.0000     1.0000 </r>
       <r>    -1.6390     0.2697     1.0121 </r>
       <r>    -1.5040     0.4852     1.0650 </r>
       <r>    -1.3690     0.9089     1.1487 </r>
       <r>    -1.2340     1.3503     1.3125 </r>
       <r>    -1.0990     1.0523     1.5191 </r>
       <r>    -0.9640     0.8774     1.6493 </r>
       <r>    -0.8289     0.7132     1.7566 </r>
       <r>    -0.6939     0.2927     1.8533 </r>
       <r>    -0.5589     0.2386     1.8891 </r>
       <r>    -0.4239     1.4750     2.0208 </r>
       <r>    -0.2889     2.2152     2.2429 </r>
       <r>    -0.1538     1.8960     2.5444 </r>
       <r>    -0.0188     1.8300     2.7952 </r>
       <r>     0.1162     1.7949     3.0409 </r>
       <r>     0.2512     2.1170     3.2958 </r>
       <r>     0.3862     1.7059     3.5843 </r>
       <r>     0.5213     0.9761     3.7682 </r>
       <r>     0.6563     1.3638     3.8985 </r>
       <r>     0.7913     0.3150     3.9777 </r>
       <r>     0.9263     0.0000     4.0000 </r>
       <r>     1.0613     0.0000     4.0000 </r>
       <r>     1.1963     0.0000     4.0000 </r>
       <r>     1.3314     0.0000     4.0000 </r>
       <r>     1.4664     0.0000     4.0000 </r>
       <r>     1.6014     0.0000     4.0000 </r>
       <r>     1.7364     0.0000     4.0000 </r>
       <r>     1.8714     0.0000     4.0000 </r>
       <r>     2.0065     0.0000     4.0000 </r>
       <r>     2.1415     0.0000     4.0000 </r>
       <r>     2.2765     0.0000     4.0000 </r>
       <r>     2.4115     0.0000     4.0000 </r>
       <r>     2.5465     0.0000     4.0000 </r>
       <r>     2.6815     0.0000     4.0000 </r>
       <r>     2.8166     0.0000     4.0000 </r>
       <r>     2.9516     0.0000     4.0000 </r>
       <r>     3.0866     0.0000     4.0000 </r>
       <r>     3.2216     0.0000     4.0000 </r>
       <r>     3.3566     0.0000     4.0000 </r>
       <r>     3.4917     0.0000     4.0000 </r>
       <r>     3.6267     0.0000     4.0000 </r>
       <r>     3.7617     0.0000     4.0000 </r>
       <r>     3.8967     0.0000     4.0000 </r>
       <r>     4.0317     0.0000     4.0000 </r>
       <r>     4.1667     0.0000     4.0000 </r>
       <r>     4.3018     0.0000     4.0000 </r>
       <r>     4.4368     0.0000     4.0000 </r>
       <r>     4.5718     0.0000     4.0000 </r>
       <r>     4.7068     0.0000     4.0000 </r>
       <r>     4.8418     0.0000     4.0000 </r>
       <r>     4.9769     0.0000     4.0000 </r>
       <r>     5.1119     0.0000     4.0000 </r>
       <r>     5.2469     0.0000     4.0000 </r>
       <r>     5.3819     0.0000     4.0000 </r>
       <r>     5.5169     0.0000     4.0000 </r>
       <r>     5.6519     0.0000     4.0000 </r>
       <r>     5.7870     0.0000     4.0000 </r>
       <r>     5.9220     0.0000     4.0000 </r>
       <r>     6.0570     0.0000     4.0000 </r>
       <r>     6.1920     0.0000     4.0000 </r>
       <r>     6.3270     0.0000     4.0000 </r>
       <r>     6.4621     0.0000     4.0000 </r>
       <r>     6.5971     0.1238     4.0253 </r>
       <r>     6.7321     0.1590     4.0444 </r>
       <r>     6.8671     0.1974     4.0684 </r>
       <r>     7.0021     0.2392     4.0978 </r>
       <r>     7.1372     0.2843     4.1331 </r>
       <r>     7.2722     0.3323     4.1990 </r>
       <r>     7.4072     0.3519     4.2452 </r>
       <r>     7.5422     0.3698     4.2939 </r>
       <r>     7.6772     0.3859     4.3450 </r>
       <r>     7.8122     0.4003     4.3981 </r>
       <r>     7.9473     0.5323     4.4885 </r>
       <r>     8.0823     0.5333     4.5606 </r>
       <r>     8.2173     0.5751     4.6353 </r>
       <r>     8.3523     0.6234     4.7162 </r>
       <r>     8.4873     0.5290     4.7952 </r>
       <r>     8.6224     0.3825     4.8572 </r>
       <r>     8.7574     0.2689     4.8991 </r>
       <r>     8.8924     0.2244     4.9322 </r>
       <r>     9.0274     0.1913     4.9604 </r>
       <r>     9.1624     0.1410     4.9831 </r>
       <r>     9.2974     0.0000     5.0000 </r>
       <r>     9.4325     0.0000     5.0000 </r>
       <r>     9.5675     0.0000     5.0000 </r>
       <r>     9.7025     0.0000     5.0000 </r>
       <r>     9.8375     0.0000     5.0000 </r>
       <r>     9.9725     0.0000     5.0000 </r>
       <r>    10.1076     0.0000     5.0000 </r>
       <r>    10.2426     0.0000     5.0000 </r>
       <r>    10.3776     0.0000     5.0000 </r>
       <r>    10.5126     0.0000     5.0000 </r>
       <r>    10.6476     0.0000     5.0000 </r>
       <r>    10.7826     0.0000     5.0000 </r>
       <r>    10.9177     0.0000     5.0000 </r>
       <r>    11.0527     0.0000     5.0000 </r>
       <r>    11.1877     0.1836     5.0081 </r>
       <r>    11.3227     0.4534     5.0519 </r>
       <r>    11.4577     0.7387     5.1338 </r>
       <r>    11.5928     0.9042     5.2460 </r>
       <r>    11.7278     0.8437     5.3647 </r>
       <r>    11.8628     0.4160     5.4761 </r>
       <r>    11.9978     0.3649     5.5288 </r>
       <r>    12.1328     0.3553     5.5769 </r>
       <r>    12.2679     0.3536     5.6247 </r>
       <r>    12.4029     0.3496     5.6722 </r>
       <r>    12.5379     0.3434     5.7190 </r>
       <r>    12.6729     0.3350     5.7649 </r>
       <r>    12.8079     0.3244     5.8094 </r>
       <r>    12.9429     0.2664     5.8882 </r>
       <r>    13.0780     0.4572     5.9337 </r>
       <r>    13.2130     0.8715     6.0237 </r>
       <r>    13.3480     0.8664     6.1417 </r>
       <r>    13.4830     0.9229     6.2629 </r>
       <r>    13.6180     1.0253     6.3937 </r>
       <r>    13.7531     1.0362     6.5483 </r>
       <r>    13.8881     1.2105     6.6951 </r>
       <r>    14.0231     1.2650     6.8766 </r>
       <r>    14.1581     1.2589     7.0456 </r>
       <r>    14.2931     1.3749     7.2325 </r>
       <r>    14.4281     1.3174     7.4093 </r>
       <r>    14.5632     0.6267     7.5644 </r>
       <r>    14.6982     0.6294     7.6494 </r>
       <r>    14.8332     0.6300     7.7340 </r>
       <r>    14.9682     0.5911     7.8166 </r>
       <r>    15.1032     0.4372     7.9106 </r>
       <r>    15.2383     0.2916     7.9595 </r>
       <r>    15.3733     0.0000     8.0000 </r>
       <r>    15.5083     0.0000     8.0000 </r>
       <r>    15.6433     0.1845     8.0090 </r>
       <r>    15.7783     0.3269     8.0433 </r>
       <r>    15.9133     0.4007     8.0972 </r>
       <r>    16.0484     0.3102     8.1428 </r>
       <r>    16.1834     0.3085     8.1845 </r>
       <r>    16.3184     0.3089     8.2262 </r>
       <r>    16.4534     0.3112     8.2680 </r>
       <r>    16.5884     0.3154     8.3103 </r>
       <r>    16.7235     0.3263     8.3646 </r>
       <r>    16.8585     0.3467     8.4101 </r>
       <r>    16.9935     0.3651     8.4582 </r>
       <r>    17.1285     0.3813     8.5086 </r>
       <r>    17.2635     0.3954     8.5610 </r>
       <r>    17.3985     0.4074     8.6153 </r>
       <r>    17.5336     0.4172     8.6709 </r>
       <r>    17.6686     0.4250     8.7278 </r>
       <r>    17.8036     0.4306     8.7856 </r>
       <r>    17.9386     0.4276     8.8687 </r>
       <r>    18.0736     0.4910     8.9275 </r>
       <r>    18.2087     0.2146     8.9767 </r>
       <r>    18.3437     0.0521     8.9938 </r>
       <r>    18.4787     0.0299     8.9976 </r>
       <r>    18.6137     0.0572     9.0110 </r>
       <r>    18.7487     0.1181     9.0225 </r>
       <r>    18.8838     0.1839     9.0429 </r>
       <r>    19.0188     0.2482     9.0721 </r>
       <r>    19.1538     0.3110     9.1099 </r>
       <r>    19.2888     0.3662     9.1598 </r>
       <r>    19.4238     0.4085     9.2122 </r>
       <r>    19.5588     0.4410     9.2696 </r>
       <r>    19.6939     0.4836     9.3317 </r>
       <r>    19.8289     0.5181     9.3996 </r>
       <r>    19.9639     0.5326     9.4707 </r>
       <r>    20.0989     0.9032     9.5708 </r>
       <r>    20.2339     0.3553     9.6539 </r>
       <r>    20.3690     0.2554     9.6932 </r>
       <r>    20.5040     0.2399     9.7266 </r>
       <r>    20.6390     0.2247     9.7580 </r>
       <r>    20.7740     0.2099     9.7873 </r>
       <r>    20.9090     0.1955     9.8147 </r>
       <r>    21.0440     0.1815     9.8401 </r>
       <r>    21.1791     0.1678     9.8637 </r>
       <r>    21.3141     0.1545     9.8854 </r>
       <r>    21.4491     0.1416     9.9054 </r>
       <r>    21.5841     0.1291     9.9237 </r>
       <r>    21.7191     0.1185     9.9523 </r>
       <r>    21.8542     0.1002     9.9670 </r>
       <r>    21.9892     0.0831     9.9794 </r>
       <r>    22.1242     0.0671     9.9895 </r>
       <r>    22.2592     0.0522     9.9976 </r>
       <r>    22.3942     0.0000    10.0000 </r>
       <r>    22.5292     0.0000    10.0000 </r>
       <r>    22.6643     0.0000    10.0000 </r>
       <r>    22.7993     0.0000    10.0000 </r>
       <r>    22.9343     0.0000    10.0000 </r>
       <r>    23.0693     0.0000    10.0000 </r>
       <r>    23.2043     0.0000    10.0000 </r>
       <r>    23.3394     0.0000    10.0000 </r>
       <r>    23.4744     0.0000    10.0000 </r>
       <r>    23.6094     0.0000    10.0000 </r>
       <r>    23.7444     0.0000    10.0000 </r>
       <r>    23.8794     0.0000    10.0000 </r>
       <r>    24.0144     0.0000    10.0000 </r>
       <r>    24.1495     0.0000    10.0000 </r>
      </set>
     </set>
    </array>
   </total>
   <partial>
    <array>
     <dimension dim="1">gridpoints</dimension>
     <dimension dim="2">spin</dimension>
     <dimension dim="3">ion</dimension>
     <field>energy</field>
     <field>  s</field>
     <field> py</field>
     <field> pz</field>
     <field> px</field>
     <field>dxy</field>
     <field>dyz</field>
     <field>dz2</field>
     <field>dxz</field>
     <field>dx2</field>
     <set>
      <set comment="ion 1">
       <set comment="spin 1">
        <r>   -16.3560     0.0000     0.0000     0.0000     0.0000     0.0000     0.0000     0.0000     0.0000     0.0000 </r>
        <r>   -16.2210     0.0000     0.0000     0.0000     0.0000     0.0000     0.0000     0.0000     0.0000     0.0000 </r>
        <r>   -16.0860     0.0000     0.0000     0.0000     0.0000     0.0000     0.0000     0.0000     0.0000     0.0000 </r>
        <r>   -15.9510     0.0000     0.0000     0.0000     0.0000     0.0000     0.0000     0.0000     0.0000     0.0000 </r>
        <r>   -15.8160     0.0000     0.0000     0.0000     0.0000     0.0000     0.0000     0.0000     0.0000     0.0000 </r>
        <r>   -15.6810     0.0000     0.0000     0.0000     0.0000     0.0000     0.0000     0.0000     0.0000     0.0000 </r>
        <r>   -15.5459     0.0000     0.0000     0.0000     0.0000     0.0000     0.0000     0.0000     0.0000     0.0000 </r>
        <r>   -15.4109     0.0000     0.0000     0.0000     0.0000     0.0000     0.0000     0.0000     0.0000     0.0000 </r>
        <r>   -15.2759     0.0000     0.0000     0.0000     0.0000     0.0000     0.0000     0.0000     0.0000     0.0000 </r>
        <r>   -15.1409     0.0000     0.0000     0.0000     0.0000     0.0000     0.0000     0.0000     0.0000     0.0000 </r>
        <r>   -15.0059     0.0000     0.0000     0.0000     0.0000     0.0000     0.0000     0.0000     0.0000     0.0000 </r>
        <r>   -14.8708     0.0000     0.0000     0.0000     0.0000     0.0000     0.0000     0.0000     0.0000     0.0000 </r>
        <r>   -14.7358     0.0000     0.0000     0.0000     0.0000     0.0000     0.0000     0.0000     0.0000     0.0000 </r>
        <r>   -14.6008     0.0000     0.0000     0.0000     0.0000     0.0000     0.0000     0.0000     0.0000     0.0000 </r>
        <r>   -14.4658     0.0154     0.0007     0.0021     0.0007     0.0000     0.0000     0.0000     0.0000     0.0000 </r>
        <r>   -14.3308     0.0315     0.0146     0.0132     0.0071     0.0000     0.0000     0.0000     0.0000     0.0000 </r>
        <r>   -14.1958     0.0000     0.0000     0.0000     0.0000     0.0000     0.0000     0.0000     0.0000     0.0000 </r>
        <r>   -14.0607     0.0000     0.0000     0.0000     0.0000     0.0000     0.0000     0.0000     0.0000     0.0000 </r>
        <r>   -13.9257     0.0000     0.0000     0.0000     0.0000     0.0000     0.0000     0.0000     0.0000     0.0000 </r>
        <r>   -13.7907     0.0000     0.0000     0.0000     0.0000     0.0000     0.0000     0.0000     0.0000     0.0000 </r>
        <r>   -13.6557     0.0000     0.0000     0.0000     0.0000     0.0000     0.0000     0.0000     0.0000     0.0000 </r>
        <r>   -13.5207     0.0000     0.0000     0.0000     0.0000     0.0000     0.0000     0.0000     0.0000     0.0000 </r>
        <r>   -13.3856     0.0000     0.0000     0.0000     0.0000     0.0000     0.0000     0.0000     0.0000     0.0000 </r>
        <r>   -13.2506     0.0000     0.0000     0.0000     0.0000     0.0000     0.0000     0.0000     0.0000     0.0000 </r>
        <r>   -13.1156     0.0000     0.0000     0.0000     0.0000     0.0000     0.0000     0.0000     0.0000     0.0000 </r>
        <r>   -12.9806     0.0000     0.0000     0.0000     0.0000     0.0000     0.0000     0.0000     0.0000     0.0000 </r>
        <r>   -12.8456     0.0000     0.0000     0.0000     0.0000     0.0000     0.0000     0.0000     0.0000     0.0000 </r>
        <r>   -12.7105     0.0000     0.0000     0.0000     0.0000     0.0000     0.0000     0.0000     0.0000     0.0000 </r>
        <r>   -12.5755     0.0000     0.0000     0.0000     0.0000     0.0000     0.0000     0.0000     0.0000     0.0000 </r>
        <r>   -12.4405     0.0000     0.0000     0.0000     0.0000     0.0000     0.0000     0.0000     0.0000     0.0000 </r>
        <r>   -12.3055     0.0000     0.0000     0.0000     0.0000     0.0000     0.0000     0.0000     0.0000     0.0000 </r>
[...]
        <r>  0.0000  0.0056  0.0000  0.0056  0.0000  0.0000  0.0000  0.0000  0.0000 </r>
       </set>
      </set>
      <set comment="kpoint 5">
       <set comment="band 1">
        <r>  0.0085  0.0110  0.0006  0.0006  0.0000  0.0000  0.0000  0.0000  0.0000 </r>
        <r>  0.0085  0.0110  0.0006  0.0006  0.0000  0.0000  0.0000  0.0000  0.0000 </r>
        <r>  0.7617  0.0001  0.0000  0.0000  0.0000  0.0000  0.0000  0.0000  0.0000 </r>
       </set>
       <set comment="band 2">
        <r>  0.0410  0.0013  0.0142  0.0142  0.0000  0.0000  0.0000  0.0000  0.0000 </r>
        <r>  0.0410  0.0013  0.0142  0.0142  0.0000  0.0000  0.0000  0.0000  0.0000 </r>
        <r>  0.0053  0.3007  0.1127  0.1127  0.0000  0.0000  0.0000  0.0000  0.0000 </r>
       </set>
       <set comment="band 3">
        <r>  0.0000  0.0000  0.0270  0.0270  0.0000  0.0000  0.0000  0.0000  0.0000 </r>
        <r>  0.0000  0.0000  0.0270  0.0270  0.0000  0.0000  0.0000  0.0000  0.0000 </r>
        <r>  0.0000  0.0000  0.3063  0.3063  0.0000  0.0000  0.0000  0.0000  0.0000 </r>
       </set>
       <set comment="band 4">
        <r>  0.0160  0.0073  0.0126  0.0126  0.0000  0.0000  0.0000  0.0000  0.0000 </r>
        <r>  0.0160  0.0073  0.0126  0.0126  0.0000  0.0000  0.0000  0.0000  0.0000 </r>
        <r>  0.0013  0.2649  0.1782  0.1782  0.0000  0.0000  0.0000  0.0000  0.0000 </r>
       </set>
       <set comment="band 5">
        <r>  0.0246  0.1149  0.0006  0.0006  0.0000  0.0000  0.0000  0.0000  0.0000 </r>
        <r>  0.0246  0.1149  0.0006  0.0006  0.0000  0.0000  0.0000  0.0000  0.0000 </r>
        <r>  0.0590  0.0653  0.0160  0.0160  0.0000  0.0000  0.0000  0.0000  0.0000 </r>
       </set>
       <set comment="band 6">
        <r>  0.0511  0.0013  0.0933  0.0933  0.0000  0.0000  0.0000  0.0000  0.0000 </r>
        <r>  0.0511  0.0013  0.0933  0.0933  0.0000  0.0000  0.0000  0.0000  0.0000 </r>
        <r>  0.0263  0.0069  0.0720  0.0720  0.0000  0.0000  0.0000  0.0000  0.0000 </r>
       </set>
       <set comment="band 7">
        <r>  0.0000  0.0000  0.1285  0.1285  0.0000  0.0000  0.0000  0.0000  0.0000 </r>
        <r>  0.0000  0.0000  0.1285  0.1285  0.0000  0.0000  0.0000  0.0000  0.0000 </r>
        <r>  0.0000  0.0000  0.0841  0.0841  0.0000  0.0000  0.0000  0.0000  0.0000 </r>
       </set>
       <set comment="band 8">
        <r>  0.1109  0.0679  0.0125  0.0125  0.0000  0.0000  0.0000  0.0000  0.0000 </r>
        <r>  0.1109  0.0679  0.0125  0.0125  0.0000  0.0000  0.0000  0.0000  0.0000 </r>
        <r>  0.0052  0.1189  0.0130  0.0130  0.0000  0.0000  0.0000  0.0000  0.0000 </r>
       </set>
       <set comment="band 9">
        <r>  0.1036  0.1285  0.0256  0.0256  0.0000  0.0000  0.0000  0.0000  0.0000 </r>
        <r>  0.1036  0.1285  0.0256  0.0256  0.0000  0.0000  0.0000  0.0000  0.0000 </r>
        <r>  0.0005  0.0401  0.0010  0.0010  0.0000  0.0000  0.0000  0.0000  0.0000 </r>
       </set>
       <set comment="band 10">
        <r>  0.0000  0.0001  0.1227  0.1186  0.0000  0.0000  0.0000  0.0000  0.0000 </r>
        <r>  0.0000  0.0001  0.1186  0.1226  0.0000  0.0000  0.0000  0.0000  0.0000 </r>
        <r>  0.0001  0.0000  0.0217  0.0219  0.0000  0.0000  0.0000  0.0000  0.0000 </r>
       </set>
      </set>
      <set comment="kpoint 6">
       <set comment="band 1">
        <r>  0.0011  0.0109  0.0047  0.0006  0.0000  0.0000  0.0000  0.0000  0.0000 </r>
        <r>  0.0011  0.0109  0.0047  0.0006  0.0000  0.0000  0.0000  0.0000  0.0000 </r>
        <r>  0.7716  0.0000  0.0000  0.0000  0.0000  0.0000  0.0000  0.0000  0.0000 </r>
       </set>
       <set comment="band 2">
        <r>  0.0259  0.0196  0.0302  0.0118  0.0000  0.0000  0.0000  0.0000  0.0000 </r>
        <r>  0.0259  0.0196  0.0302  0.0118  0.0000  0.0000  0.0000  0.0000  0.0000 </r>
        <r>  0.0002  0.1192  0.1069  0.2682  0.0000  0.0000  0.0000  0.0000  0.0000 </r>
       </set>
       <set comment="band 3">
        <r>  0.0346  0.0045  0.0015  0.0250  0.0000  0.0000  0.0000  0.0000  0.0000 </r>
        <r>  0.0346  0.0045  0.0015  0.0250  0.0000  0.0000  0.0000  0.0000  0.0000 </r>
        <r>  0.0003  0.3664  0.1965  0.0132  0.0000  0.0000  0.0000  0.0000  0.0000 </r>
       </set>
       <set comment="band 4">
        <r>  0.0098  0.0068  0.0206  0.0263  0.0000  0.0000  0.0000  0.0000  0.0000 </r>
        <r>  0.0098  0.0068  0.0206  0.0263  0.0000  0.0000  0.0000  0.0000  0.0000 </r>
        <r>  0.0000  0.0796  0.2663  0.2423  0.0000  0.0000  0.0000  0.0000  0.0000 </r>
       </set>
       <set comment="band 5">
        <r>  0.0015  0.0970  0.0036  0.0007  0.0000  0.0000  0.0000  0.0000  0.0000 </r>
        <r>  0.0015  0.0970  0.0036  0.0007  0.0000  0.0000  0.0000  0.0000  0.0000 </r>
        <r>  0.0160  0.0082  0.0121  0.1554  0.0000  0.0000  0.0000  0.0000  0.0000 </r>
       </set>
       <set comment="band 6">
        <r>  0.0226  0.0609  0.1603  0.0029  0.0000  0.0000  0.0000  0.0000  0.0000 </r>
        <r>  0.0226  0.0609  0.1603  0.0029  0.0000  0.0000  0.0000  0.0000  0.0000 </r>
        <r>  0.0766  0.0007  0.0061  0.0600  0.0000  0.0000  0.0000  0.0000  0.0000 </r>
       </set>
       <set comment="band 7">
        <r>  0.0605  0.0010  0.0190  0.1275  0.0000  0.0000  0.0000  0.0000  0.0000 </r>
        <r>  0.0605  0.0010  0.0190  0.1275  0.0000  0.0000  0.0000  0.0000  0.0000 </r>
        <r>  0.0009  0.0025  0.2400  0.0046  0.0000  0.0000  0.0000  0.0000  0.0000 </r>
       </set>
       <set comment="band 8">
        <r>  0.1291  0.0113  0.0039  0.0443  0.0000  0.0000  0.0000  0.0000  0.0000 </r>
        <r>  0.1291  0.0113  0.0039  0.0443  0.0000  0.0000  0.0000  0.0000  0.0000 </r>
        <r>  0.0004  0.2749  0.0043  0.0004  0.0000  0.0000  0.0000  0.0000  0.0000 </r>
       </set>
       <set comment="band 9">
        <r>  0.1385  0.0304  0.0056  0.1104  0.0000  0.0000  0.0000  0.0000  0.0000 </r>
        <r>  0.1385  0.0304  0.0056  0.1104  0.0000  0.0000  0.0000  0.0000  0.0000 </r>
        <r>  0.0026  0.0053  0.0000  0.0033  0.0000  0.0000  0.0000  0.0000  0.0000 </r>
       </set>
       <set comment="band 10">
        <r>  0.0420  0.0023  0.0444  0.2101  0.0000  0.0000  0.0000  0.0000  0.0000 </r>
        <r>  0.0420  0.0023  0.0444  0.2101  0.0000  0.0000  0.0000  0.0000  0.0000 </r>
        <r>  0.0022  0.0001  0.0050  0.0068  0.0000  0.0000  0.0000  0.0000  0.0000 </r>
       </set>
      </set>
      <set comment="kpoint 7">
       <set comment="band 1">
        <r>  0.0062  0.0034  0.0079  0.0019  0.0000  0.0000  0.0000  0.0000  0.0000 </r>
        <r>  0.0062  0.0034  0.0079  0.0019  0.0000  0.0000  0.0000  0.0000  0.0000 </r>
        <r>  0.7656  0.0000  0.0000  0.0000  0.0000  0.0000  0.0000  0.0000  0.0000 </r>
       </set>
       <set comment="band 2">
        <r>  0.0395  0.0296  0.0083  0.0089  0.0000  0.0000  0.0000  0.0000  0.0000 </r>
        <r>  0.0395  0.0296  0.0083  0.0089  0.0000  0.0000  0.0000  0.0000  0.0000 </r>
        <r>  0.0027  0.0639  0.2073  0.2078  0.0000  0.0000  0.0000  0.0000  0.0000 </r>
       </set>
       <set comment="band 3">
        <r>  0.0144  0.0081  0.0053  0.0279  0.0000  0.0000  0.0000  0.0000  0.0000 </r>
        <r>  0.0144  0.0081  0.0053  0.0279  0.0000  0.0000  0.0000  0.0000  0.0000 </r>
        <r>  0.0004  0.5258  0.0476  0.0310  0.0000  0.0000  0.0000  0.0000  0.0000 </r>
       </set>
       <set comment="band 4">
        <r>  0.0058  0.0068  0.0158  0.0145  0.0000  0.0000  0.0000  0.0000  0.0000 </r>
        <r>  0.0058  0.0068  0.0158  0.0145  0.0000  0.0000  0.0000  0.0000  0.0000 </r>
        <r>  0.0003  0.0010  0.3172  0.3239  0.0000  0.0000  0.0000  0.0000  0.0000 </r>
       </set>
       <set comment="band 5">
        <r>  0.0203  0.0012  0.0844  0.0066  0.0000  0.0000  0.0000  0.0000  0.0000 </r>
        <r>  0.0203  0.0012  0.0844  0.0066  0.0000  0.0000  0.0000  0.0000  0.0000 </r>
        <r>  0.0356  0.0093  0.0704  0.1194  0.0000  0.0000  0.0000  0.0000  0.0000 </r>
       </set>
       <set comment="band 6">
        <r>  0.0637  0.1713  0.0098  0.0034  0.0000  0.0000  0.0000  0.0000  0.0000 </r>
        <r>  0.0637  0.1713  0.0098  0.0034  0.0000  0.0000  0.0000  0.0000  0.0000 </r>
        <r>  0.0666  0.0056  0.0001  0.0478  0.0000  0.0000  0.0000  0.0000  0.0000 </r>
       </set>
       <set comment="band 7">
        <r>  0.0489  0.0289  0.0093  0.1442  0.0000  0.0000  0.0000  0.0000  0.0000 </r>
        <r>  0.0489  0.0289  0.0093  0.1442  0.0000  0.0000  0.0000  0.0000  0.0000 </r>
        <r>  0.0012  0.1682  0.0060  0.0006  0.0000  0.0000  0.0000  0.0000  0.0000 </r>
       </set>
       <set comment="band 8">
        <r>  0.0599  0.0057  0.0849  0.0511  0.0000  0.0000  0.0000  0.0000  0.0000 </r>
        <r>  0.0599  0.0057  0.0849  0.0511  0.0000  0.0000  0.0000  0.0000  0.0000 </r>
        <r>  0.0006  0.0238  0.1139  0.0002  0.0000  0.0000  0.0000  0.0000  0.0000 </r>
       </set>
       <set comment="band 9">
        <r>  0.0433  0.0057  0.1387  0.1125  0.0000  0.0000  0.0000  0.0000  0.0000 </r>
        <r>  0.0433  0.0057  0.1387  0.1125  0.0000  0.0000  0.0000  0.0000  0.0000 </r>
        <r>  0.0002  0.0000  0.0330  0.0032  0.0000  0.0000  0.0000  0.0000  0.0000 </r>
       </set>
       <set comment="band 10">
        <r>  0.0476  0.0652  0.0149  0.1367  0.0000  0.0000  0.0000  0.0000  0.0000 </r>
        <r>  0.0476  0.0652  0.0149  0.1367  0.0000  0.0000  0.0000  0.0000  0.0000 </r>
        <r>  0.0059  0.0153  0.0142  0.0478  0.0000  0.0000  0.0000  0.0000  0.0000 </r>
       </set>
      </set>
      <set comment="kpoint 8">
       <set comment="band 1">
        <r>  0.0011  0.0155  0.0006  0.0006  0.0000  0.0000  0.0000  0.0000  0.0000 </r>
        <r>  0.0011  0.0155  0.0006  0.0006  0.0000  0.0000  0.0000  0.0000  0.0000 </r>
        <r>  0.7704  0.0000  0.0000  0.0000  0.0000  0.0000  0.0000  0.0000  0.0000 </r>
       </set>
       <set comment="band 2">
        <r>  0.0393  0.0034  0.0166  0.0166  0.0000  0.0000  0.0000  0.0000  0.0000 </r>
        <r>  0.0393  0.0034  0.0166  0.0166  0.0000  0.0000  0.0000  0.0000  0.0000 </r>
        <r>  0.0010  0.2872  0.1243  0.1243  0.0000  0.0000  0.0000  0.0000  0.0000 </r>
       </set>
       <set comment="band 3">
        <r>  0.0291  0.0056  0.0164  0.0164  0.0000  0.0000  0.0000  0.0000  0.0000 </r>
        <r>  0.0291  0.0056  0.0164  0.0164  0.0000  0.0000  0.0000  0.0000  0.0000 </r>
        <r>  0.0001  0.2719  0.1502  0.1502  0.0000  0.0000  0.0000  0.0000  0.0000 </r>
       </set>
       <set comment="band 4">
        <r>  0.0000  0.0000  0.0334  0.0334  0.0000  0.0000  0.0000  0.0000  0.0000 </r>
        <r>  0.0000  0.0000  0.0334  0.0334  0.0000  0.0000  0.0000  0.0000  0.0000 </r>
        <r>  0.0000  0.0000  0.2927  0.2927  0.0000  0.0000  0.0000  0.0000  0.0000 </r>
       </set>
       <set comment="band 5">
        <r>  0.0019  0.1391  0.0001  0.0001  0.0000  0.0000  0.0000  0.0000  0.0000 </r>
        <r>  0.0019  0.1391  0.0001  0.0001  0.0000  0.0000  0.0000  0.0000  0.0000 </r>
        <r>  0.0407  0.0081  0.0206  0.0206  0.0000  0.0000  0.0000  0.0000  0.0000 </r>
       </set>
       <set comment="band 6">
        <r>  0.0256  0.0140  0.0923  0.0923  0.0000  0.0000  0.0000  0.0000  0.0000 </r>
        <r>  0.0256  0.0140  0.0923  0.0923  0.0000  0.0000  0.0000  0.0000  0.0000 </r>
        <r>  0.0272  0.0040  0.1047  0.1047  0.0000  0.0000  0.0000  0.0000  0.0000 </r>
       </set>
       <set comment="band 7">
        <r>  0.0000  0.0000  0.1130  0.1130  0.0000  0.0000  0.0000  0.0000  0.0000 </r>
        <r>  0.0000  0.0000  0.1130  0.1130  0.0000  0.0000  0.0000  0.0000  0.0000 </r>
        <r>  0.0000  0.0000  0.1201  0.1201  0.0000  0.0000  0.0000  0.0000  0.0000 </r>
       </set>
       <set comment="band 8">
        <r>  0.1595  0.0050  0.0070  0.0070  0.0000  0.0000  0.0000  0.0000  0.0000 </r>
        <r>  0.1595  0.0050  0.0070  0.0070  0.0000  0.0000  0.0000  0.0000  0.0000 </r>
        <r>  0.0015  0.2937  0.0039  0.0039  0.0000  0.0000  0.0000  0.0000  0.0000 </r>
       </set>
       <set comment="band 9">
        <r>  0.2203  0.0261  0.0147  0.0147  0.0000  0.0000  0.0000  0.0000  0.0000 </r>
        <r>  0.2203  0.0261  0.0147  0.0147  0.0000  0.0000  0.0000  0.0000  0.0000 </r>
        <r>  0.0007  0.0036  0.0000  0.0000  0.0000  0.0000  0.0000  0.0000  0.0000 </r>
       </set>
       <set comment="band 10">
        <r>  0.0003  0.1253  0.0097  0.0097  0.0000  0.0000  0.0000  0.0000  0.0000 </r>
        <r>  0.0003  0.1253  0.0097  0.0097  0.0000  0.0000  0.0000  0.0000  0.0000 </r>
        <r>  0.0885  0.0077  0.0201  0.0201  0.0000  0.0000  0.0000  0.0000  0.0000 </r>
       </set>
      </set>
      <set comment="kpoint 9">
       <set comment="band 1">
        <r>  0.0103  0.0035  0.0035  0.0035  0.0000  0.0000  0.0000  0.0000  0.0000 </r>
        <r>  0.0103  0.0035  0.0035  0.0035  0.0000  0.0000  0.0000  0.0000  0.0000 </r>
        <r>  0.7611  0.0000  0.0000  0.0000  0.0000  0.0000  0.0000  0.0000  0.0000 </r>
       </set>
       <set comment="band 2">
        <r>  0.0471  0.0138  0.0138  0.0138  0.0000  0.0000  0.0000  0.0000  0.0000 </r>
        <r>  0.0471  0.0138  0.0138  0.0138  0.0000  0.0000  0.0000  0.0000  0.0000 </r>
        <r>  0.0033  0.1540  0.1540  0.1540  0.0000  0.0000  0.0000  0.0000  0.0000 </r>
       </set>
       <set comment="band 3">
        <r>  0.0000  0.0002  0.0145  0.0168  0.0000  0.0000  0.0000  0.0000  0.0000 </r>
        <r>  0.0000  0.0002  0.0145  0.0168  0.0000  0.0000  0.0000  0.0000  0.0000 </r>
        <r>  0.0000  0.0039  0.3094  0.3572  0.0000  0.0000  0.0000  0.0000  0.0000 </r>
       </set>
       <set comment="band 4">
        <r>  0.0000  0.0208  0.0065  0.0042  0.0000  0.0000  0.0000  0.0000  0.0000 </r>
        <r>  0.0000  0.0208  0.0065  0.0042  0.0000  0.0000  0.0000  0.0000  0.0000 </r>
        <r>  0.0000  0.4431  0.1377  0.0898  0.0000  0.0000  0.0000  0.0000  0.0000 </r>
       </set>
       <set comment="band 5">
        <r>  0.0772  0.0201  0.0201  0.0201  0.0000  0.0000  0.0000  0.0000  0.0000 </r>
        <r>  0.0772  0.0201  0.0201  0.0201  0.0000  0.0000  0.0000  0.0000  0.0000 </r>
        <r>  0.0728  0.0635  0.0635  0.0635  0.0000  0.0000  0.0000  0.0000  0.0000 </r>
       </set>
       <set comment="band 6">
        <r>  0.0887  0.0422  0.0422  0.0422  0.0000  0.0000  0.0000  0.0000  0.0000 </r>
        <r>  0.0887  0.0422  0.0422  0.0422  0.0000  0.0000  0.0000  0.0000  0.0000 </r>
        <r>  0.0429  0.0490  0.0490  0.0490  0.0000  0.0000  0.0000  0.0000  0.0000 </r>
       </set>
       <set comment="band 7">
        <r>  0.0000  0.0000  0.1300  0.1278  0.0000  0.0000  0.0000  0.0000  0.0000 </r>
        <r>  0.0000  0.0000  0.1300  0.1278  0.0000  0.0000  0.0000  0.0000  0.0000 </r>
        <r>  0.0000  0.0000  0.0036  0.0035  0.0000  0.0000  0.0000  0.0000  0.0000 </r>
       </set>
       <set comment="band 8">
        <r>  0.0000  0.1718  0.0419  0.0441  0.0000  0.0000  0.0000  0.0000  0.0000 </r>
        <r>  0.0000  0.1718  0.0419  0.0441  0.0000  0.0000  0.0000  0.0000  0.0000 </r>
        <r>  0.0000  0.0047  0.0011  0.0012  0.0000  0.0000  0.0000  0.0000  0.0000 </r>
       </set>
       <set comment="band 9">
        <r>  0.0000  0.0394  0.0685  0.1555  0.0000  0.0000  0.0000  0.0000  0.0000 </r>
        <r>  0.0000  0.0394  0.0685  0.1555  0.0000  0.0000  0.0000  0.0000  0.0000 </r>
        <r>  0.0000  0.0151  0.0263  0.0598  0.0000  0.0000  0.0000  0.0000  0.0000 </r>
       </set>
       <set comment="band 10">
        <r>  0.0000  0.1362  0.1071  0.0200  0.0000  0.0000  0.0000  0.0000  0.0000 </r>
        <r>  0.0000  0.1362  0.1071  0.0200  0.0000  0.0000  0.0000  0.0000  0.0000 </r>
        <r>  0.0000  0.0523  0.0412  0.0077  0.0000  0.0000  0.0000  0.0000  0.0000 </r>
       </set>
      </set>
      <set comment="kpoint 10">
       <set comment="band 1">
        <r>  0.0032  0.0036  0.0077  0.0036  0.0000  0.0000  0.0000  0.0000  0.0000 </r>
        <r>  0.0032  0.0036  0.0077  0.0036  0.0000  0.0000  0.0000  0.0000  0.0000 </r>
        <r>  0.7697  0.0000  0.0000  0.0000  0.0000  0.0000  0.0000  0.0000  0.0000 </r>
       </set>
       <set comment="band 2">
        <r>  0.0354  0.0145  0.0279  0.0145  0.0000  0.0000  0.0000  0.0000  0.0000 </r>
        <r>  0.0354  0.0145  0.0279  0.0145  0.0000  0.0000  0.0000  0.0000  0.0000 </r>
        <r>  0.0003  0.2029  0.0620  0.2029  0.0000  0.0000  0.0000  0.0000  0.0000 </r>
       </set>
       <set comment="band 3">
        <r>  0.0293  0.0122  0.0072  0.0122  0.0000  0.0000  0.0000  0.0000  0.0000 </r>
        <r>  0.0293  0.0122  0.0072  0.0122  0.0000  0.0000  0.0000  0.0000  0.0000 </r>
        <r>  0.0004  0.0366  0.5145  0.0366  0.0000  0.0000  0.0000  0.0000  0.0000 </r>
       </set>
       <set comment="band 4">
        <r>  0.0000  0.0242  0.0000  0.0242  0.0000  0.0000  0.0000  0.0000  0.0000 </r>
        <r>  0.0000  0.0242  0.0000  0.0242  0.0000  0.0000  0.0000  0.0000  0.0000 </r>
        <r>  0.0000  0.3159  0.0000  0.3159  0.0000  0.0000  0.0000  0.0000  0.0000 </r>
       </set>
       <set comment="band 5">
        <r>  0.0006  0.0104  0.0717  0.0104  0.0000  0.0000  0.0000  0.0000  0.0000 </r>
        <r>  0.0006  0.0104  0.0717  0.0104  0.0000  0.0000  0.0000  0.0000  0.0000 </r>
        <r>  0.0023  0.1118  0.0079  0.1118  0.0000  0.0000  0.0000  0.0000  0.0000 </r>
       </set>
       <set comment="band 6">
        <r>  0.0821  0.0389  0.0927  0.0389  0.0000  0.0000  0.0000  0.0000  0.0000 </r>
        <r>  0.0821  0.0389  0.0927  0.0389  0.0000  0.0000  0.0000  0.0000  0.0000 </r>
        <r>  0.1027  0.0228  0.0009  0.0228  0.0000  0.0000  0.0000  0.0000  0.0000 </r>
       </set>
       <set comment="band 7">
        <r>  0.0000  0.1043  0.0000  0.1043  0.0000  0.0000  0.0000  0.0000  0.0000 </r>
        <r>  0.0000  0.1043  0.0000  0.1043  0.0000  0.0000  0.0000  0.0000  0.0000 </r>
        <r>  0.0000  0.0610  0.0000  0.0610  0.0000  0.0000  0.0000  0.0000  0.0000 </r>
       </set>
       <set comment="band 8">
        <r>  0.1128  0.0356  0.0209  0.0356  0.0000  0.0000  0.0000  0.0000  0.0000 </r>
        <r>  0.1128  0.0356  0.0209  0.0356  0.0000  0.0000  0.0000  0.0000  0.0000 </r>
        <r>  0.0004  0.0016  0.2367  0.0016  0.0000  0.0000  0.0000  0.0000  0.0000 </r>
       </set>
       <set comment="band 9">
        <r>  0.0000  0.1562  0.0000  0.1562  0.0000  0.0000  0.0000  0.0000  0.0000 </r>
        <r>  0.0000  0.1562  0.0000  0.1562  0.0000  0.0000  0.0000  0.0000  0.0000 </r>
        <r>  0.0000  0.0130  0.0000  0.0130  0.0000  0.0000  0.0000  0.0000  0.0000 </r>
       </set>
       <set comment="band 10">
        <r>  0.1198  0.0551  0.0430  0.0551  0.0000  0.0000  0.0000  0.0000  0.0000 </r>
        <r>  0.1198  0.0551  0.0430  0.0551  0.0000  0.0000  0.0000  0.0000  0.0000 </r>
        <r>  0.0094  0.0181  0.0156  0.0181  0.0000  0.0000  0.0000  0.0000  0.0000 </r>
       </set>
      </set>
     </set>
    </set>
   </array>
  </projected>
 </calculation>
 <structure name="finalpos" >
  <crystal>
   <varray name="basis" >
    <v>       2.31498782       2.31498782      -0.00000000 </v>
    <v>       0.00000000       2.31498782       2.31498782 </v>
    <v>       2.31498782       0.00000000       2.31498782 </v>
   </varray>
   <i name="volume">     24.81282016 </i>
   <varray name="rec_basis" >
    <v>       0.21598386       0.21598386      -0.21598386 </v>
    <v>      -0.21598386       0.21598386       0.21598386 </v>
    <v>       0.21598386      -0.21598386       0.21598386 </v>
   </varray>
  </crystal>
  <varray name="positions" >
   <v>       0.75000000       0.75000000       0.75000000 </v>
   <v>       0.25000000       0.25000000       0.25000000 </v>
   <v>       0.00000000      -0.00000000      -0.00000000 </v>
  </varray>
 </structure>
</modeling>
