  68  68   0   0
  0.8997955E+01  0.7605000E-09  0.8582000E-09  0.9393000E-09  0.5000000E-15
   1.0000000000000000E-004
  CAR 
 RubyVaspy :: B O Zn Tb                  
     15.97409891    -20.67627916  301      2.07749723      1.00000000
    -20.676  0.0000E+00  0.0000E+00  0.0000E+00  0.0000E+00
    -20.554  0.0000E+00  0.0000E+00  0.0000E+00  0.0000E+00
    -20.432  0.0000E+00  0.0000E+00  0.0000E+00  0.0000E+00
    -20.310  0.0000E+00  0.0000E+00  0.0000E+00  0.0000E+00
    -20.188  0.0000E+00  0.0000E+00  0.0000E+00  0.0000E+00
    -20.065  0.0000E+00  0.0000E+00  0.0000E+00  0.0000E+00
    -19.943  0.0000E+00  0.0000E+00  0.0000E+00  0.0000E+00
    -19.821  0.0000E+00  0.0000E+00  0.0000E+00  0.0000E+00
    -19.699  0.0000E+00  0.0000E+00  0.0000E+00  0.0000E+00
    -19.577  0.0000E+00  0.0000E+00  0.0000E+00  0.0000E+00
    -19.455  0.0000E+00  0.0000E+00  0.0000E+00  0.0000E+00
    -19.332  0.0000E+00  0.0000E+00  0.0000E+00  0.0000E+00
    -19.210  0.0000E+00  0.0000E+00  0.0000E+00  0.0000E+00
    -19.088  0.0000E+00  0.0000E+00  0.0000E+00  0.0000E+00
    -18.966  0.4331E-01  0.4331E-01  0.1399E-02  0.1399E-02
    -18.844  0.4388E-01  0.4388E-01  0.8359E-02  0.8359E-02
    -18.722  0.1233E+00  0.1233E+00  0.1422E-01  0.1422E-01
    -18.599  0.5011E-01  0.5011E-01  0.2545E-01  0.2545E-01
    -18.477  0.1971E+00  0.1971E+00  0.4202E-01  0.4202E-01
    -18.355  0.3843E-01  0.3843E-01  0.5041E-01  0.5041E-01
    -18.233  0.6140E-01  0.6141E-01  0.5850E-01  0.5850E-01
    -18.111  0.0000E+00  0.0000E+00  0.6000E-01  0.6000E-01
    -17.989  0.2592E-01  0.2592E-01  0.6174E-01  0.6174E-01
    -17.866  0.3369E-01  0.3369E-01  0.6587E-01  0.6587E-01
    -17.744  0.1165E+00  0.1165E+00  0.7657E-01  0.7657E-01
    -17.622  0.0000E+00  0.0000E+00  0.8000E-01  0.8000E-01
    -17.500  0.2484E-01  0.2484E-01  0.8173E-01  0.8173E-01
    -17.378  0.5099E-01  0.5099E-01  0.8605E-01  0.8605E-01
    -17.256  0.0000E+00  0.0000E+00  0.9000E-01  0.9000E-01
    -17.133  0.7222E-01  0.7222E-01  0.9566E-01  0.9566E-01
    -17.011  0.1896E-01  0.1896E-01  0.9998E-01  0.9998E-01
    -16.889  0.2869E-01  0.2869E-01  0.1009E+00  0.1009E+00
    -16.767  0.8355E-01  0.8355E-01  0.1079E+00  0.1079E+00
    -16.645  0.0000E+00  0.0000E+00  0.1100E+00  0.1100E+00
    -16.523  0.0000E+00  0.0000E+00  0.1200E+00  0.1200E+00
    -16.400  0.1689E+00  0.1689E+00  0.1256E+00  0.1256E+00
    -16.278  0.4180E-01  0.4180E-01  0.1344E+00  0.1344E+00
    -16.156  0.1305E+00  0.1305E+00  0.1444E+00  0.1444E+00
    -16.034  0.7569E-01  0.7568E-01  0.1562E+00  0.1562E+00
    -15.912  0.0000E+00  0.0000E+00  0.1600E+00  0.1600E+00
    -15.790  0.0000E+00  0.0000E+00  0.1600E+00  0.1600E+00
    -15.667  0.3338E-01  0.3338E-01  0.1698E+00  0.1698E+00
    -15.545  0.0000E+00  0.0000E+00  0.1800E+00  0.1800E+00
    -15.423  0.1840E+00  0.1840E+00  0.1938E+00  0.1938E+00
    -15.301  0.1104E+00  0.1104E+00  0.2087E+00  0.2087E+00
    -15.179  0.1941E+00  0.1941E+00  0.2323E+00  0.2323E+00
    -15.057  0.3626E-01  0.3626E-01  0.2445E+00  0.2445E+00
    -14.934  0.0000E+00  0.0000E+00  0.2500E+00  0.2500E+00
    -14.812  0.0000E+00  0.0000E+00  0.2500E+00  0.2500E+00
    -14.690  0.3233E-01  0.3233E-01  0.2546E+00  0.2546E+00
    -14.568  0.0000E+00  0.0000E+00  0.2600E+00  0.2600E+00
    -14.446  0.0000E+00  0.0000E+00  0.2600E+00  0.2600E+00
    -14.324  0.0000E+00  0.0000E+00  0.2600E+00  0.2600E+00
    -14.201  0.0000E+00  0.0000E+00  0.2600E+00  0.2600E+00
    -14.079  0.0000E+00  0.0000E+00  0.2600E+00  0.2600E+00
    -13.957  0.0000E+00  0.0000E+00  0.2600E+00  0.2600E+00
    -13.835  0.0000E+00  0.0000E+00  0.2600E+00  0.2600E+00
    -13.713  0.0000E+00  0.0000E+00  0.2600E+00  0.2600E+00
    -13.591  0.0000E+00  0.0000E+00  0.2600E+00  0.2600E+00
    -13.468  0.0000E+00  0.0000E+00  0.2600E+00  0.2600E+00
    -13.346  0.0000E+00  0.0000E+00  0.2600E+00  0.2600E+00
    -13.224  0.0000E+00  0.0000E+00  0.2600E+00  0.2600E+00
    -13.102  0.0000E+00  0.0000E+00  0.2600E+00  0.2600E+00
    -12.980  0.0000E+00  0.0000E+00  0.2600E+00  0.2600E+00
    -12.858  0.0000E+00  0.0000E+00  0.2600E+00  0.2600E+00
    -12.735  0.0000E+00  0.0000E+00  0.2600E+00  0.2600E+00
    -12.613  0.0000E+00  0.0000E+00  0.2600E+00  0.2600E+00
    -12.491  0.0000E+00  0.0000E+00  0.2600E+00  0.2600E+00
    -12.369  0.0000E+00  0.0000E+00  0.2600E+00  0.2600E+00
    -12.247  0.0000E+00  0.0000E+00  0.2600E+00  0.2600E+00
    -12.125  0.0000E+00  0.0000E+00  0.2600E+00  0.2600E+00
    -12.002  0.0000E+00  0.0000E+00  0.2600E+00  0.2600E+00
    -11.880  0.0000E+00  0.0000E+00  0.2600E+00  0.2600E+00
    -11.758  0.0000E+00  0.0000E+00  0.2600E+00  0.2600E+00
    -11.636  0.0000E+00  0.0000E+00  0.2600E+00  0.2600E+00
    -11.514  0.0000E+00  0.0000E+00  0.2600E+00  0.2600E+00
    -11.392  0.0000E+00  0.0000E+00  0.2600E+00  0.2600E+00
    -11.269  0.0000E+00  0.0000E+00  0.2600E+00  0.2600E+00
    -11.147  0.0000E+00  0.0000E+00  0.2600E+00  0.2600E+00
    -11.025  0.0000E+00  0.0000E+00  0.2600E+00  0.2600E+00
    -10.903  0.0000E+00  0.0000E+00  0.2600E+00  0.2600E+00
    -10.781  0.0000E+00  0.0000E+00  0.2600E+00  0.2600E+00
    -10.659  0.0000E+00  0.0000E+00  0.2600E+00  0.2600E+00
    -10.536  0.0000E+00  0.0000E+00  0.2600E+00  0.2600E+00
    -10.414  0.0000E+00  0.0000E+00  0.2600E+00  0.2600E+00
    -10.292  0.0000E+00  0.0000E+00  0.2600E+00  0.2600E+00
    -10.170  0.0000E+00  0.0000E+00  0.2600E+00  0.2600E+00
    -10.048  0.0000E+00  0.0000E+00  0.2600E+00  0.2600E+00
     -9.926  0.0000E+00  0.0000E+00  0.2600E+00  0.2600E+00
     -9.803  0.0000E+00  0.0000E+00  0.2600E+00  0.2600E+00
     -9.681  0.0000E+00  0.0000E+00  0.2600E+00  0.2600E+00
     -9.559  0.0000E+00  0.0000E+00  0.2600E+00  0.2600E+00
     -9.437  0.0000E+00  0.0000E+00  0.2600E+00  0.2600E+00
     -9.315  0.0000E+00  0.0000E+00  0.2600E+00  0.2600E+00
     -9.192  0.0000E+00  0.0000E+00  0.2600E+00  0.2600E+00
     -9.070  0.0000E+00  0.0000E+00  0.2600E+00  0.2600E+00
     -8.948  0.0000E+00  0.0000E+00  0.2600E+00  0.2600E+00
     -8.826  0.0000E+00  0.0000E+00  0.2600E+00  0.2600E+00
     -8.704  0.0000E+00  0.0000E+00  0.2600E+00  0.2600E+00
     -8.582  0.0000E+00  0.0000E+00  0.2600E+00  0.2600E+00
     -8.459  0.0000E+00  0.0000E+00  0.2600E+00  0.2600E+00
     -8.337  0.0000E+00  0.0000E+00  0.2600E+00  0.2600E+00
     -8.215  0.0000E+00  0.0000E+00  0.2600E+00  0.2600E+00
     -8.093  0.0000E+00  0.0000E+00  0.2600E+00  0.2600E+00
     -7.971  0.0000E+00  0.0000E+00  0.2600E+00  0.2600E+00
     -7.849  0.0000E+00  0.0000E+00  0.2600E+00  0.2600E+00
     -7.726  0.0000E+00  0.0000E+00  0.2600E+00  0.2600E+00
     -7.604  0.0000E+00  0.0000E+00  0.2600E+00  0.2600E+00
     -7.482  0.0000E+00  0.0000E+00  0.2600E+00  0.2600E+00
     -7.360  0.0000E+00  0.0000E+00  0.2600E+00  0.2600E+00
     -7.238  0.0000E+00  0.0000E+00  0.2600E+00  0.2600E+00
     -7.116  0.0000E+00  0.0000E+00  0.2600E+00  0.2600E+00
     -6.993  0.0000E+00  0.0000E+00  0.2600E+00  0.2600E+00
     -6.871  0.3289E-02  0.3289E-02  0.2600E+00  0.2600E+00
     -6.749  0.5101E-01  0.5101E-01  0.2636E+00  0.2636E+00
     -6.627  0.3015E-01  0.3015E-01  0.2676E+00  0.2676E+00
     -6.505  0.1900E-02  0.1900E-02  0.2700E+00  0.2700E+00
     -6.383  0.8180E-01  0.8180E-01  0.2712E+00  0.2712E+00
     -6.260  0.5258E-01  0.5258E-01  0.2793E+00  0.2793E+00
     -6.138  0.0000E+00  0.0000E+00  0.2800E+00  0.2800E+00
     -6.016  0.0000E+00  0.0000E+00  0.2800E+00  0.2800E+00
     -5.894  0.1333E+00  0.1333E+00  0.2840E+00  0.2840E+00
     -5.772  0.1583E+00  0.1583E+00  0.2979E+00  0.2979E+00
     -5.650  0.0000E+00  0.0000E+00  0.3000E+00  0.3000E+00
     -5.527  0.0000E+00  0.0000E+00  0.3000E+00  0.3000E+00
     -5.405  0.3502E-01  0.3502E-01  0.3001E+00  0.3001E+00
     -5.283  0.5029E-02  0.5028E-02  0.3100E+00  0.3100E+00
     -5.161  0.5251E-01  0.5251E-01  0.3134E+00  0.3134E+00
     -5.039  0.0000E+00  0.0000E+00  0.3200E+00  0.3200E+00
     -4.917  0.0000E+00  0.0000E+00  0.3200E+00  0.3200E+00
     -4.794  0.1318E+00  0.1318E+00  0.3280E+00  0.3280E+00
     -4.672  0.4490E-01  0.4490E-01  0.3392E+00  0.3392E+00
     -4.550  0.1312E+00  0.1312E+00  0.3434E+00  0.3434E+00
     -4.428  0.7977E-01  0.7977E-01  0.3516E+00  0.3516E+00
     -4.306  0.9279E-01  0.9279E-01  0.3612E+00  0.3612E+00
     -4.184  0.1340E-01  0.1339E-01  0.3699E+00  0.3699E+00
     -4.061  0.2874E-01  0.2874E-01  0.3729E+00  0.3729E+00
     -3.939  0.2156E-01  0.2156E-01  0.3768E+00  0.3768E+00
     -3.817  0.1320E+00  0.1320E+00  0.3832E+00  0.3832E+00
     -3.695  0.8452E-01  0.8452E-01  0.3996E+00  0.3996E+00
     -3.573  0.5883E-01  0.5883E-01  0.4028E+00  0.4028E+00
     -3.451  0.3496E-01  0.3496E-01  0.4103E+00  0.4103E+00
     -3.328  0.5333E-01  0.5333E-01  0.4188E+00  0.4188E+00
     -3.206  0.1175E+00  0.1175E+00  0.4240E+00  0.4240E+00
     -3.084  0.5700E-01  0.5700E-01  0.4349E+00  0.4349E+00
     -2.962  0.1661E+00  0.1661E+00  0.4424E+00  0.4424E+00
     -2.840  0.1061E+00  0.1061E+00  0.4510E+00  0.4510E+00
     -2.718  0.8643E-01  0.8643E-01  0.4620E+00  0.4620E+00
     -2.595  0.1051E+00  0.1051E+00  0.4730E+00  0.4730E+00
     -2.473  0.1097E+00  0.1097E+00  0.4869E+00  0.4869E+00
     -2.351  0.6512E-01  0.6512E-01  0.4980E+00  0.4980E+00
     -2.229  0.1631E+00  0.1631E+00  0.5096E+00  0.5096E+00
     -2.107  0.1290E+00  0.1290E+00  0.5254E+00  0.5254E+00
     -1.985  0.1201E+00  0.1201E+00  0.5466E+00  0.5466E+00
     -1.862  0.1397E+00  0.1397E+00  0.5680E+00  0.5680E+00
     -1.740  0.1346E+00  0.1346E+00  0.5844E+00  0.5844E+00
     -1.618  0.7335E-01  0.7335E-01  0.5965E+00  0.5965E+00
     -1.496  0.6556E-01  0.6556E-01  0.6102E+00  0.6102E+00
     -1.374  0.9689E-01  0.9689E-01  0.6202E+00  0.6202E+00
     -1.252  0.8321E-01  0.8321E-01  0.6310E+00  0.6310E+00
     -1.129  0.4683E-01  0.4683E-01  0.6376E+00  0.6376E+00
     -1.007  0.6816E-01  0.6816E-01  0.6444E+00  0.6444E+00
     -0.885  0.1136E+00  0.1136E+00  0.6530E+00  0.6530E+00
     -0.763  0.5650E-01  0.5650E-01  0.6600E+00  0.6600E+00
     -0.641  0.4703E-01  0.4703E-01  0.6669E+00  0.6669E+00
     -0.519  0.7383E-01  0.7383E-01  0.6744E+00  0.6744E+00
     -0.396  0.7081E-01  0.7081E-01  0.6824E+00  0.6824E+00
     -0.274  0.1285E+00  0.1285E+00  0.6920E+00  0.6920E+00
     -0.152  0.2798E+00  0.2798E+00  0.7050E+00  0.7050E+00
     -0.030  0.1374E+00  0.1374E+00  0.7195E+00  0.7195E+00
      0.092  0.1605E+00  0.1606E+00  0.7325E+00  0.7325E+00
      0.214  0.8873E-01  0.8873E-01  0.7453E+00  0.7453E+00
      0.337  0.1343E+00  0.1343E+00  0.7581E+00  0.7581E+00
      0.459  0.1094E+00  0.1094E+00  0.7718E+00  0.7718E+00
      0.581  0.8225E-01  0.8225E-01  0.7893E+00  0.7893E+00
      0.703  0.1397E+00  0.1397E+00  0.8050E+00  0.8050E+00
      0.825  0.1452E+00  0.1452E+00  0.8222E+00  0.8222E+00
      0.947  0.7231E-01  0.7231E-01  0.8361E+00  0.8361E+00
      1.070  0.7454E-01  0.7454E-01  0.8492E+00  0.8492E+00
      1.192  0.1169E+00  0.1169E+00  0.8610E+00  0.8610E+00
      1.314  0.7416E-01  0.7416E-01  0.8770E+00  0.8770E+00
      1.436  0.1040E+00  0.1040E+00  0.8938E+00  0.8938E+00
      1.558  0.9347E-01  0.9347E-01  0.9062E+00  0.9062E+00
      1.680  0.1260E+00  0.1260E+00  0.9214E+00  0.9214E+00
      1.803  0.1322E+00  0.1322E+00  0.9335E+00  0.9335E+00
      1.925  0.1748E+00  0.1748E+00  0.9471E+00  0.9471E+00
      2.047  0.0000E+00  0.0000E+00  0.9600E+00  0.9600E+00
      2.169  0.0000E+00  0.0000E+00  0.9600E+00  0.9600E+00
      2.291  0.0000E+00  0.0000E+00  0.9600E+00  0.9600E+00
      2.413  0.0000E+00  0.0000E+00  0.9600E+00  0.9600E+00
      2.536  0.0000E+00  0.0000E+00  0.9600E+00  0.9600E+00
      2.658  0.0000E+00  0.0000E+00  0.9600E+00  0.9600E+00
      2.780  0.0000E+00  0.0000E+00  0.9600E+00  0.9600E+00
      2.902  0.0000E+00  0.0000E+00  0.9600E+00  0.9600E+00
      3.024  0.0000E+00  0.0000E+00  0.9600E+00  0.9600E+00
      3.146  0.0000E+00  0.0000E+00  0.9600E+00  0.9600E+00
      3.269  0.0000E+00  0.0000E+00  0.9600E+00  0.9600E+00
      3.391  0.0000E+00  0.0000E+00  0.9600E+00  0.9600E+00
      3.513  0.0000E+00  0.0000E+00  0.9600E+00  0.9600E+00
      3.635  0.0000E+00  0.0000E+00  0.9600E+00  0.9600E+00
      3.757  0.0000E+00  0.0000E+00  0.9600E+00  0.9600E+00
      3.879  0.0000E+00  0.0000E+00  0.9600E+00  0.9600E+00
      4.002  0.0000E+00  0.0000E+00  0.9600E+00  0.9600E+00
      4.124  0.0000E+00  0.0000E+00  0.9600E+00  0.9600E+00
      4.246  0.0000E+00  0.0000E+00  0.9600E+00  0.9600E+00
      4.368  0.0000E+00  0.0000E+00  0.9600E+00  0.9600E+00
      4.490  0.0000E+00  0.0000E+00  0.9600E+00  0.9600E+00
      4.612  0.0000E+00  0.0000E+00  0.9600E+00  0.9600E+00
      4.735  0.0000E+00  0.0000E+00  0.9600E+00  0.9600E+00
      4.857  0.0000E+00  0.0000E+00  0.9600E+00  0.9600E+00
      4.979  0.0000E+00  0.0000E+00  0.9600E+00  0.9600E+00
      5.101  0.0000E+00  0.0000E+00  0.9600E+00  0.9600E+00
      5.223  0.0000E+00  0.0000E+00  0.9600E+00  0.9600E+00
      5.345  0.0000E+00  0.0000E+00  0.9600E+00  0.9600E+00
      5.468  0.0000E+00  0.0000E+00  0.9600E+00  0.9600E+00
      5.590  0.0000E+00  0.0000E+00  0.9600E+00  0.9600E+00
      5.712  0.0000E+00  0.0000E+00  0.9600E+00  0.9600E+00
      5.834  0.0000E+00  0.0000E+00  0.9600E+00  0.9600E+00
      5.956  0.0000E+00  0.0000E+00  0.9600E+00  0.9600E+00
      6.078  0.0000E+00  0.0000E+00  0.9600E+00  0.9600E+00
      6.201  0.0000E+00  0.0000E+00  0.9600E+00  0.9600E+00
      6.323  0.0000E+00  0.0000E+00  0.9600E+00  0.9600E+00
      6.445  0.0000E+00  0.0000E+00  0.9600E+00  0.9600E+00
      6.567  0.0000E+00  0.0000E+00  0.9600E+00  0.9600E+00
      6.689  0.0000E+00  0.0000E+00  0.9600E+00  0.9600E+00
      6.812  0.0000E+00  0.0000E+00  0.9600E+00  0.9600E+00
      6.934  0.0000E+00  0.0000E+00  0.9600E+00  0.9600E+00
      7.056  0.0000E+00  0.0000E+00  0.9600E+00  0.9600E+00
      7.178  0.0000E+00  0.0000E+00  0.9600E+00  0.9600E+00
      7.300  0.2554E-02  0.2554E-02  0.9602E+00  0.9602E+00
      7.422  0.4758E-02  0.4758E-02  0.9606E+00  0.9606E+00
      7.545  0.9967E-02  0.9967E-02  0.9615E+00  0.9615E+00
      7.667  0.1374E-01  0.1374E-01  0.9632E+00  0.9632E+00
      7.789  0.1951E-01  0.1951E-01  0.9651E+00  0.9651E+00
      7.911  0.2496E-01  0.2496E-01  0.9687E+00  0.9687E+00
      8.033  0.6433E-01  0.6433E-01  0.9704E+00  0.9704E+00
      8.155  0.4258E-01  0.4258E-01  0.9790E+00  0.9790E+00
      8.278  0.0000E+00  0.0000E+00  0.9800E+00  0.9800E+00
      8.400  0.5926E-02  0.5926E-02  0.9800E+00  0.9800E+00
      8.522  0.4354E-01  0.4354E-01  0.9839E+00  0.9839E+00
      8.644  0.7162E-01  0.7162E-01  0.9904E+00  0.9904E+00
      8.766  0.5785E-01  0.5785E-01  0.9985E+00  0.9985E+00
      8.888  0.9192E-01  0.9192E-01  0.1009E+01  0.1009E+01
      9.011  0.1076E+00  0.1076E+00  0.1019E+01  0.1019E+01
      9.133  0.6403E-01  0.6403E-01  0.1027E+01  0.1027E+01
      9.255  0.8099E-01  0.8099E-01  0.1036E+01  0.1036E+01
      9.377  0.2588E-01  0.2588E-01  0.1041E+01  0.1041E+01
      9.499  0.1188E+00  0.1188E+00  0.1049E+01  0.1049E+01
      9.621  0.5669E-01  0.5669E-01  0.1058E+01  0.1058E+01
      9.744  0.5413E-01  0.5413E-01  0.1070E+01  0.1070E+01
      9.866  0.8186E-01  0.8186E-01  0.1078E+01  0.1078E+01
      9.988  0.4170E-01  0.4170E-01  0.1086E+01  0.1086E+01
     10.110  0.1231E+00  0.1231E+00  0.1093E+01  0.1093E+01
     10.232  0.1753E-01  0.1753E-01  0.1099E+01  0.1099E+01
     10.354  0.6548E-01  0.6548E-01  0.1104E+01  0.1104E+01
     10.477  0.3800E-01  0.3800E-01  0.1109E+01  0.1109E+01
     10.599  0.7929E-01  0.7929E-01  0.1117E+01  0.1117E+01
     10.721  0.3010E-01  0.3010E-01  0.1122E+01  0.1122E+01
     10.843  0.3149E-01  0.3149E-01  0.1127E+01  0.1127E+01
     10.965  0.1589E-01  0.1589E-01  0.1129E+01  0.1129E+01
     11.087  0.2727E-01  0.2727E-01  0.1131E+01  0.1131E+01
     11.210  0.3361E-01  0.3361E-01  0.1136E+01  0.1136E+01
     11.332  0.1339E-01  0.1339E-01  0.1140E+01  0.1140E+01
     11.454  0.4304E-01  0.4304E-01  0.1143E+01  0.1143E+01
     11.576  0.2315E-01  0.2315E-01  0.1147E+01  0.1147E+01
     11.698  0.2741E-01  0.2741E-01  0.1150E+01  0.1150E+01
     11.820  0.2685E-01  0.2685E-01  0.1153E+01  0.1153E+01
     11.943  0.2004E-01  0.2004E-01  0.1158E+01  0.1158E+01
     12.065  0.1849E-01  0.1849E-01  0.1160E+01  0.1160E+01
     12.187  0.5038E-01  0.5038E-01  0.1165E+01  0.1165E+01
     12.309  0.1618E-01  0.1618E-01  0.1170E+01  0.1170E+01
     12.431  0.3954E-01  0.3954E-01  0.1174E+01  0.1174E+01
     12.553  0.3214E-01  0.3214E-01  0.1180E+01  0.1180E+01
     12.676  0.4009E-01  0.4009E-01  0.1187E+01  0.1187E+01
     12.798  0.6534E-01  0.6534E-01  0.1194E+01  0.1194E+01
     12.920  0.4257E-01  0.4257E-01  0.1202E+01  0.1202E+01
     13.042  0.1465E+00  0.1465E+00  0.1208E+01  0.1208E+01
     13.164  0.3690E-01  0.3690E-01  0.1215E+01  0.1215E+01
     13.286  0.5330E-01  0.5330E-01  0.1221E+01  0.1221E+01
     13.409  0.9811E-01  0.9811E-01  0.1230E+01  0.1230E+01
     13.531  0.9117E-01  0.9117E-01  0.1236E+01  0.1236E+01
     13.653  0.5736E-01  0.5736E-01  0.1243E+01  0.1243E+01
     13.775  0.8844E-01  0.8845E-01  0.1249E+01  0.1249E+01
     13.897  0.6860E-01  0.6860E-01  0.1258E+01  0.1258E+01
     14.019  0.6022E-01  0.6022E-01  0.1265E+01  0.1265E+01
     14.142  0.9410E-01  0.9409E-01  0.1275E+01  0.1275E+01
     14.264  0.1015E+00  0.1003E+00  0.1285E+01  0.1285E+01
     14.386  0.0000E+00  0.0000E+00  0.1295E+01  0.1295E+01
     14.508  0.0000E+00  0.0000E+00  0.1295E+01  0.1295E+01
     14.630  0.0000E+00  0.0000E+00  0.1295E+01  0.1295E+01
     14.752  0.0000E+00  0.0000E+00  0.1295E+01  0.1295E+01
     14.875  0.0000E+00  0.0000E+00  0.1295E+01  0.1295E+01
     14.997  0.0000E+00  0.0000E+00  0.1295E+01  0.1295E+01
     15.119  0.0000E+00  0.0000E+00  0.1295E+01  0.1295E+01
     15.241  0.0000E+00  0.0000E+00  0.1295E+01  0.1295E+01
     15.363  0.0000E+00  0.0000E+00  0.1295E+01  0.1295E+01
     15.485  0.0000E+00  0.0000E+00  0.1295E+01  0.1295E+01
     15.608  0.0000E+00  0.0000E+00  0.1295E+01  0.1295E+01
     15.730  0.0000E+00  0.0000E+00  0.1295E+01  0.1295E+01
     15.852  0.0000E+00  0.0000E+00  0.1295E+01  0.1295E+01
     15.974  0.0000E+00  0.0000E+00  0.1295E+01  0.1295E+01
