   68   68  200    2
  0.8997955E+01  0.7605000E-09  0.8582000E-09  0.9393000E-09  0.5000000E-15
   1.0000000000000000E-004
  CAR
 RubyVaspy :: B O Zn Tb
  384   16  259

  0.1250000E+00  0.1250000E+00  0.1250000E+00  0.6250000E-01
   1      -18.969757    -18.969757
   2      -18.918290    -18.918290
   3      -18.705424    -18.705424
   4      -18.684202    -18.684202
   5      -18.629231    -18.629231
   6      -18.562981    -18.562981
   7      -18.519108    -18.519108
   8      -18.516013    -18.516013
   9      -18.476248    -18.476248
  10      -18.463862    -18.463862
  11      -18.325038    -18.325038
  12      -18.214361    -18.214361
  13      -18.080327    -18.080327
  14      -17.855768    -17.855768
  15      -17.736246    -17.736246
  16      -17.661444    -17.661444
  17      -17.459046    -17.459046
  18      -17.328165    -17.328165
  19      -17.135402    -17.135402
  20      -17.074644    -17.074644
  21      -16.947245    -16.947245
  22      -16.725503    -16.725503
  23      -16.623564    -16.623564
  24      -16.587739    -16.587739
  25      -16.512551    -16.512551
  26      -16.350154    -16.350154
  27      -16.294524    -16.294524
  28      -16.215131    -16.215131
  29      -16.155051    -16.155051
  30      -16.137723    -16.137722
  31      -16.091520    -16.091520
  32      -16.018353    -16.018353
  33      -15.709455    -15.709455
  34      -15.682695    -15.682695
  35      -15.652062    -15.652062
  36      -15.556802    -15.556802
  37      -15.489096    -15.489096
  38      -15.453919    -15.453919
  39      -15.436433    -15.436433
  40      -15.412211    -15.412211
  41      -15.397760    -15.397760
  42      -15.309710    -15.309710
  43      -15.290793    -15.290793
  44      -15.229930    -15.229930
  45      -15.203593    -15.203593
  46      -15.187700    -15.187700
  47      -15.150796    -15.150795
  48      -15.143776    -15.143776
  49      -15.136106    -15.136106
  50      -15.094612    -15.094612
  51      -14.607957    -14.607957
  52      -14.595010    -14.595010
  53       -6.881734     -6.881734
  54       -6.492824     -6.492824
  55       -6.353143     -6.353143
  56       -6.244802     -6.244802
  57       -5.973418     -5.973418
  58       -5.884528     -5.884528
  59       -5.796115     -5.796115
  60       -5.793938     -5.793938
  61       -5.332727     -5.332727
  62       -5.290114     -5.290113
  63       -5.252139     -5.252139
  64       -5.096114     -5.096114
  65       -4.823260     -4.823259
  66       -4.790226     -4.790226
  67       -4.741156     -4.741156
  68       -4.714534     -4.714534
  69       -4.555381     -4.555381
  70       -4.447670     -4.447670
  71       -4.414833     -4.414832
  72       -4.395733     -4.395733
  73       -4.273709     -4.273709
  74       -4.240466     -4.240466
  75       -4.120437     -4.120437
  76       -3.829923     -3.829923
  77       -3.770513     -3.770513
  78       -3.751378     -3.751378
  79       -3.732452     -3.732452
  80       -3.721173     -3.721173
  81       -3.583999     -3.583999
  82       -3.508428     -3.508427
  83       -3.428663     -3.428663
  84       -3.342800     -3.342800
  85       -3.234692     -3.234692
  86       -3.194607     -3.194607
  87       -3.112281     -3.112281
  88       -3.075402     -3.075402
  89       -2.964632     -2.964632
  90       -2.902063     -2.902063
  91       -2.862482     -2.862481
  92       -2.800836     -2.800836
  93       -2.724153     -2.724153
  94       -2.700375     -2.700375
  95       -2.641877     -2.641877
  96       -2.590297     -2.590297
  97       -2.531357     -2.531356
  98       -2.522205     -2.522205
  99       -2.425130     -2.425130
 100       -2.401191     -2.401191
 101       -2.310817     -2.310817
 102       -2.262861     -2.262861
 103       -2.209170     -2.209170
 104       -2.180373     -2.180373
 105       -2.166748     -2.166748
 106       -2.083259     -2.083259
 107       -2.073619     -2.073619
 108       -2.040484     -2.040484
 109       -2.013736     -2.013736
 110       -2.006654     -2.006654
 111       -1.940972     -1.940972
 112       -1.891915     -1.891915
 113       -1.885174     -1.885174
 114       -1.847374     -1.847374
 115       -1.826693     -1.826693
 116       -1.801043     -1.801043
 117       -1.773980     -1.773980
 118       -1.750890     -1.750889
 119       -1.663198     -1.663198
 120       -1.589344     -1.589343
 121       -1.578018     -1.578018
 122       -1.536859     -1.536858
 123       -1.364037     -1.364037
 124       -1.338548     -1.338548
 125       -1.277417     -1.277417
 126       -1.217721     -1.217721
 127       -1.197435     -1.197435
 128       -1.189818     -1.189818
 129       -1.082170     -1.082170
 130       -0.891483     -0.891483
 131       -0.881140     -0.881140
 132       -0.807430     -0.807430
 133       -0.757604     -0.757604
 134       -0.608292     -0.608292
 135       -0.562538     -0.562538
 136       -0.501045     -0.501045
 137       -0.389542     -0.389542
 138       -0.337840     -0.337840
 139       -0.298721     -0.298721
 140       -0.197285     -0.197284
 141       -0.136988     -0.136988
 142       -0.115370     -0.115370
 143       -0.070540     -0.070540
 144       -0.004321     -0.004321
 145        0.029421      0.029421
 146        0.046199      0.046199
 147        0.130103      0.130103
 148        0.142368      0.142368
 149        0.195743      0.195743
 150        0.254398      0.254398
 151        0.277906      0.277906
 152        0.320850      0.320850
 153        0.404148      0.404148
 154        0.427502      0.427502
 155        0.490033      0.490033
 156        0.526883      0.526883
 157        0.531907      0.531907
 158        0.546938      0.546938
 159        0.593383      0.593383
 160        0.613307      0.613307
 161        0.635764      0.635764
 162        0.681007      0.681007
 163        0.765012      0.765012
 164        0.788855      0.788855
 165        0.818672      0.818672
 166        0.871776      0.871776
 167        0.906360      0.906360
 168        0.960310      0.960310
 169        1.024320      1.024320
 170        1.091238      1.091239
 171        1.110145      1.110145
 172        1.144095      1.144095
 173        1.200361      1.200361
 174        1.221030      1.221030
 175        1.272346      1.272346
 176        1.308819      1.308819
 177        1.353557      1.353557
 178        1.392222      1.392223
 179        1.453304      1.453304
 180        1.487922      1.487922
 181        1.575637      1.575637
 182        1.587674      1.587674
 183        1.622967      1.622967
 184        1.645282      1.645282
 185        1.652956      1.652956
 186        1.771479      1.771479
 187        1.797923      1.797923
 188        1.811313      1.811313
 189        1.863705      1.863705
 190        1.887021      1.887021
 191        1.926512      1.926512
 192        1.969819      1.969819
 193        7.268874      7.268874
 194        7.922907      7.922907
 195        8.082804      8.082804
 196        8.166414      8.166414
 197        8.406111      8.406111
 198        8.651659      8.651659
 199        8.666527      8.666527
 200        8.797345      8.797345
 201        8.858986      8.858986
 202        8.910080      8.910080
 203        8.992660      8.992660
 204        9.005250      9.005250
 205        9.035009      9.035009
 206        9.080631      9.080631
 207        9.196483      9.196483
 208        9.308839      9.308839
 209        9.435724      9.435724
 210        9.501604      9.501604
 211        9.568160      9.568160
 212        9.597117      9.597117
 213        9.653380      9.653380
 214        9.683603      9.683603
 215        9.818851      9.818851
 216        9.852269      9.852269
 217        9.960437      9.960437
 218        9.982085      9.982085
 219       10.100668     10.100668
 220       10.300725     10.300725
 221       10.434792     10.434792
 222       10.486872     10.486872
 223       10.597811     10.597811
 224       10.661650     10.661650
 225       10.828041     10.828041
 226       10.921204     10.921204
 227       11.056957     11.056957
 228       11.317007     11.317007
 229       11.425451     11.425452
 230       11.447957     11.447957
 231       11.621089     11.621089
 232       11.920164     11.920165
 233       12.154012     12.154012
 234       12.334097     12.334098
 235       12.365913     12.365913
 236       12.415156     12.415156
 237       12.573547     12.573547
 238       12.652939     12.652940
 239       12.779349     12.779349
 240       12.834349     12.834349
 241       12.837350     12.837350
 242       13.029945     13.029945
 243       13.077177     13.077177
 244       13.227491     13.227491
 245       13.353638     13.353638
 246       13.409552     13.409553
 247       13.439601     13.439601
 248       13.597789     13.597789
 249       13.660966     13.660966
 250       13.676028     13.676028
 251       13.749572     13.749572
 252       13.774523     13.774523
 253       13.958628     13.958628
 254       14.014040     14.014040
 255       14.139253     14.139253
 256       14.193076     14.193078
 257       14.249070     14.249070
 258       14.289306     14.289590
 259       14.300631     14.301274

  0.3750000E+00  0.1250000E+00  0.1250000E+00  0.6250000E-01
   1      -18.877561    -18.877561
   2      -18.822777    -18.822777
   3      -18.732448    -18.732448
   4      -18.719610    -18.719610
   5      -18.646745    -18.646745
   6      -18.583965    -18.583965
   7      -18.555087    -18.555087
   8      -18.530490    -18.530490
   9      -18.459906    -18.459906
  10      -18.436288    -18.436288
  11      -18.362155    -18.362155
  12      -18.316167    -18.316167
  13      -18.009709    -18.009709
  14      -17.852667    -17.852667
  15      -17.819415    -17.819415
  16      -17.764485    -17.764485
  17      -17.395306    -17.395306
  18      -17.273912    -17.273912
  19      -17.178908    -17.178908
  20      -17.090065    -17.090065
  21      -16.886995    -16.886995
  22      -16.816500    -16.816500
  23      -16.535698    -16.535698
  24      -16.529011    -16.529011
  25      -16.477465    -16.477465
  26      -16.403434    -16.403434
  27      -16.277823    -16.277823
  28      -16.209231    -16.209231
  29      -16.168408    -16.168408
  30      -16.141685    -16.141685
  31      -16.101152    -16.101152
  32      -16.058014    -16.058014
  33      -15.714962    -15.714962
  34      -15.701111    -15.701111
  35      -15.601954    -15.601953
  36      -15.553081    -15.553081
  37      -15.484722    -15.484722
  38      -15.468521    -15.468521
  39      -15.420698    -15.420698
  40      -15.382440    -15.382440
  41      -15.306409    -15.306409
  42      -15.302402    -15.302402
  43      -15.266245    -15.266245
  44      -15.230046    -15.230046
  45      -15.217387    -15.217387
  46      -15.206654    -15.206654
  47      -15.198390    -15.198389
  48      -15.177838    -15.177837
  49      -14.986155    -14.986155
  50      -14.954497    -14.954497
  51      -14.766770    -14.766770
  52      -14.741451    -14.741451
  53       -6.794784     -6.794784
  54       -6.663352     -6.663352
  55       -6.331834     -6.331833
  56       -6.303440     -6.303440
  57       -5.908709     -5.908708
  58       -5.883870     -5.883870
  59       -5.850547     -5.850547
  60       -5.779087     -5.779087
  61       -5.361512     -5.361512
  62       -5.343513     -5.343513
  63       -5.144498     -5.144498
  64       -5.070471     -5.070471
  65       -4.797045     -4.797045
  66       -4.772397     -4.772397
  67       -4.736876     -4.736876
  68       -4.711342     -4.711342
  69       -4.559803     -4.559802
  70       -4.489909     -4.489909
  71       -4.387717     -4.387717
  72       -4.321097     -4.321096
  73       -4.287527     -4.287527
  74       -4.242544     -4.242544
  75       -4.204797     -4.204796
  76       -3.946148     -3.946148
  77       -3.875460     -3.875460
  78       -3.833167     -3.833167
  79       -3.745782     -3.745782
  80       -3.706803     -3.706802
  81       -3.549730     -3.549730
  82       -3.493802     -3.493802
  83       -3.410830     -3.410830
  84       -3.344389     -3.344389
  85       -3.169900     -3.169900
  86       -3.141640     -3.141640
  87       -3.112477     -3.112477
  88       -2.987579     -2.987579
  89       -2.965196     -2.965196
  90       -2.917110     -2.917109
  91       -2.842327     -2.842327
  92       -2.798786     -2.798786
  93       -2.701672     -2.701672
  94       -2.690158     -2.690158
  95       -2.579837     -2.579837
  96       -2.505238     -2.505238
  97       -2.487265     -2.487265
  98       -2.448142     -2.448142
  99       -2.358148     -2.358148
 100       -2.314529     -2.314529
 101       -2.283173     -2.283173
 102       -2.241947     -2.241947
 103       -2.194521     -2.194521
 104       -2.162863     -2.162863
 105       -2.132327     -2.132327
 106       -2.071514     -2.071513
 107       -2.052419     -2.052419
 108       -2.012662     -2.012662
 109       -2.001722     -2.001722
 110       -1.977126     -1.977126
 111       -1.950050     -1.950050
 112       -1.891818     -1.891817
 113       -1.883521     -1.883521
 114       -1.862383     -1.862383
 115       -1.857072     -1.857072
 116       -1.797942     -1.797942
 117       -1.704642     -1.704642
 118       -1.646992     -1.646992
 119       -1.636941     -1.636941
 120       -1.617814     -1.617814
 121       -1.573371     -1.573370
 122       -1.563046     -1.563046
 123       -1.508946     -1.508946
 124       -1.458935     -1.458935
 125       -1.373312     -1.373312
 126       -1.323448     -1.323447
 127       -1.252162     -1.252162
 128       -1.077420     -1.077420
 129       -1.069496     -1.069496
 130       -1.025642     -1.025642
 131       -0.892998     -0.892997
 132       -0.856269     -0.856269
 133       -0.734095     -0.734095
 134       -0.714447     -0.714447
 135       -0.634835     -0.634835
 136       -0.514076     -0.514076
 137       -0.405064     -0.405064
 138       -0.358856     -0.358855
 139       -0.241849     -0.241849
 140       -0.205511     -0.205511
 141       -0.156305     -0.156305
 142       -0.152803     -0.152803
 143       -0.038767     -0.038767
 144       -0.004014     -0.004014
 145        0.016513      0.016513
 146        0.075376      0.075376
 147        0.093580      0.093580
 148        0.175067      0.175067
 149        0.194951      0.194951
 150        0.222131      0.222131
 151        0.256491      0.256491
 152        0.305590      0.305590
 153        0.341372      0.341372
 154        0.426108      0.426108
 155        0.468101      0.468101
 156        0.493555      0.493555
 157        0.521683      0.521683
 158        0.568474      0.568474
 159        0.619895      0.619895
 160        0.640080      0.640081
 161        0.663620      0.663620
 162        0.674143      0.674143
 163        0.764364      0.764364
 164        0.783362      0.783363
 165        0.820579      0.820579
 166        0.890472      0.890472
 167        0.920925      0.920925
 168        0.958822      0.958822
 169        0.983557      0.983557
 170        1.064978      1.064978
 171        1.120682      1.120682
 172        1.127054      1.127054
 173        1.193125      1.193125
 174        1.238453      1.238453
 175        1.272540      1.272540
 176        1.346465      1.346465
 177        1.375159      1.375159
 178        1.397063      1.397063
 179        1.458529      1.458529
 180        1.472085      1.472085
 181        1.495789      1.495789
 182        1.551810      1.551810
 183        1.589172      1.589172
 184        1.626972      1.626972
 185        1.688813      1.688813
 186        1.776962      1.776962
 187        1.813428      1.813428
 188        1.838470      1.838470
 189        1.896082      1.896082
 190        1.941458      1.941458
 191        1.962434      1.962434
 192        2.005912      2.005912
 193        7.582818      7.582818
 194        7.853903      7.853903
 195        8.033737      8.033737
 196        8.099985      8.099985
 197        8.577028      8.577028
 198        8.648797      8.648797
 199        8.736773      8.736773
 200        8.790569      8.790569
 201        8.864528      8.864528
 202        8.890160      8.890160
 203        8.945847      8.945847
 204        8.973390      8.973390
 205        9.127191      9.127191
 206        9.147012      9.147012
 207        9.209724      9.209724
 208        9.237864      9.237864
 209        9.445260      9.445260
 210        9.517805      9.517805
 211        9.582996      9.582996
 212        9.630048      9.630049
 213        9.721208      9.721208
 214        9.762020      9.762020
 215        9.787499      9.787499
 216        9.819815      9.819815
 217        9.941333      9.941333
 218       10.013424     10.013424
 219       10.108789     10.108789
 220       10.129506     10.129507
 221       10.277943     10.277943
 222       10.346104     10.346104
 223       10.458358     10.458358
 224       10.527602     10.527602
 225       10.860205     10.860205
 226       10.881672     10.881672
 227       11.068076     11.068076
 228       11.221406     11.221407
 229       11.425824     11.425824
 230       11.481660     11.481660
 231       11.769140     11.769140
 232       11.909398     11.909398
 233       12.054269     12.054269
 234       12.168709     12.168709
 235       12.517958     12.517958
 236       12.585259     12.585259
 237       12.644928     12.644928
 238       12.717770     12.717771
 239       12.789585     12.789586
 240       12.842841     12.842842
 241       12.875038     12.875038
 242       12.931423     12.931423
 243       13.083334     13.083334
 244       13.194005     13.194005
 245       13.321954     13.321955
 246       13.385778     13.385779
 247       13.549338     13.549338
 248       13.554242     13.554243
 249       13.643519     13.643519
 250       13.732623     13.732623
 251       13.785699     13.785699
 252       13.881176     13.881176
 253       13.927959     13.927959
 254       14.066410     14.066411
 255       14.186598     14.186597
 256       14.223326     14.223340
 257       14.263033     14.263031
 258       14.275235     14.275356
 259       14.298190     14.300631

  0.1250000E+00  0.3750000E+00  0.1250000E+00  0.6250000E-01
   1      -18.951917    -18.951917
   2      -18.940705    -18.940705
   3      -18.741212    -18.741212
   4      -18.716002    -18.716002
   5      -18.621901    -18.621901
   6      -18.548338    -18.548338
   7      -18.513850    -18.513850
   8      -18.504310    -18.504310
   9      -18.487788    -18.487788
  10      -18.460440    -18.460440
  11      -18.251349    -18.251349
  12      -18.231937    -18.231937
  13      -17.972685    -17.972685
  14      -17.808375    -17.808375
  15      -17.780187    -17.780187
  16      -17.756994    -17.756994
  17      -17.495586    -17.495586
  18      -17.341998    -17.341998
  19      -17.174707    -17.174707
  20      -17.092757    -17.092757
  21      -16.903574    -16.903574
  22      -16.781389    -16.781389
  23      -16.618595    -16.618595
  24      -16.565536    -16.565535
  25      -16.414724    -16.414724
  26      -16.387109    -16.387109
  27      -16.317153    -16.317153
  28      -16.265129    -16.265129
  29      -16.148279    -16.148279
  30      -16.066909    -16.066909
  31      -16.044389    -16.044389
  32      -15.997215    -15.997215
  33      -15.716717    -15.716717
  34      -15.711538    -15.711537
  35      -15.622764    -15.622764
  36      -15.582652    -15.582652
  37      -15.507311    -15.507311
  38      -15.482978    -15.482978
  39      -15.442693    -15.442693
  40      -15.432299    -15.432299
  41      -15.401503    -15.401503
  42      -15.309213    -15.309213
  43      -15.283967    -15.283967
  44      -15.238183    -15.238183
  45      -15.196308    -15.196308
  46      -15.184918    -15.184918
  47      -15.147795    -15.147795
  48      -15.133933    -15.133933
  49      -15.111747    -15.111747
  50      -15.100229    -15.100229
  51      -14.608233    -14.608233
  52      -14.597706    -14.597706
  53       -6.812514     -6.812514
  54       -6.551611     -6.551611
  55       -6.400908     -6.400908
  56       -6.261634     -6.261634
  57       -5.942138     -5.942138
  58       -5.857473     -5.857473
  59       -5.812239     -5.812239
  60       -5.779821     -5.779820
  61       -5.392188     -5.392188
  62       -5.346045     -5.346045
  63       -5.142879     -5.142879
  64       -5.079486     -5.079486
  65       -4.842097     -4.842097
  66       -4.798175     -4.798175
  67       -4.766943     -4.766943
  68       -4.726360     -4.726360
  69       -4.544074     -4.544074
  70       -4.447804     -4.447804
  71       -4.413257     -4.413257
  72       -4.372314     -4.372314
  73       -4.291057     -4.291056
  74       -4.213757     -4.213757
  75       -4.020515     -4.020514
  76       -3.852945     -3.852945
  77       -3.793673     -3.793673
  78       -3.764824     -3.764824
  79       -3.749262     -3.749262
  80       -3.707836     -3.707836
  81       -3.626578     -3.626578
  82       -3.586030     -3.586030
  83       -3.347946     -3.347946
  84       -3.314034     -3.314034
  85       -3.226123     -3.226123
  86       -3.159450     -3.159450
  87       -3.093148     -3.093147
  88       -2.992763     -2.992762
  89       -2.976878     -2.976878
  90       -2.930681     -2.930681
  91       -2.843983     -2.843983
  92       -2.805269     -2.805269
  93       -2.725059     -2.725059
  94       -2.701767     -2.701767
  95       -2.670041     -2.670041
  96       -2.586737     -2.586737
  97       -2.556229     -2.556229
  98       -2.499126     -2.499126
  99       -2.444897     -2.444897
 100       -2.395505     -2.395505
 101       -2.331055     -2.331055
 102       -2.285000     -2.285000
 103       -2.224674     -2.224674
 104       -2.181023     -2.181023
 105       -2.149066     -2.149066
 106       -2.121031     -2.121031
 107       -2.040597     -2.040597
 108       -2.026564     -2.026564
 109       -2.002359     -2.002359
 110       -1.982633     -1.982633
 111       -1.933090     -1.933090
 112       -1.918496     -1.918496
 113       -1.900004     -1.900004
 114       -1.869997     -1.869997
 115       -1.832639     -1.832639
 116       -1.809077     -1.809077
 117       -1.794386     -1.794386
 118       -1.765132     -1.765132
 119       -1.713580     -1.713580
 120       -1.651902     -1.651902
 121       -1.605507     -1.605506
 122       -1.555805     -1.555805
 123       -1.426122     -1.426122
 124       -1.382519     -1.382519
 125       -1.317991     -1.317991
 126       -1.301906     -1.301906
 127       -1.193481     -1.193481
 128       -1.099582     -1.099582
 129       -1.066303     -1.066303
 130       -0.952837     -0.952836
 131       -0.794274     -0.794274
 132       -0.774888     -0.774888
 133       -0.680609     -0.680609
 134       -0.572391     -0.572391
 135       -0.504461     -0.504461
 136       -0.384556     -0.384556
 137       -0.335092     -0.335092
 138       -0.258039     -0.258039
 139       -0.227901     -0.227901
 140       -0.179827     -0.179827
 141       -0.150970     -0.150970
 142       -0.106307     -0.106307
 143       -0.063278     -0.063278
 144       -0.013690     -0.013690
 145        0.013468      0.013468
 146        0.073442      0.073442
 147        0.136903      0.136903
 148        0.160425      0.160425
 149        0.227355      0.227355
 150        0.256864      0.256864
 151        0.264303      0.264303
 152        0.307111      0.307111
 153        0.363835      0.363835
 154        0.405616      0.405616
 155        0.423918      0.423918
 156        0.477037      0.477037
 157        0.519948      0.519948
 158        0.538202      0.538202
 159        0.575305      0.575305
 160        0.640338      0.640338
 161        0.669015      0.669015
 162        0.691124      0.691124
 163        0.726223      0.726223
 164        0.779406      0.779406
 165        0.799526      0.799526
 166        0.870959      0.870959
 167        0.888160      0.888160
 168        0.906364      0.906364
 169        0.960764      0.960764
 170        0.985244      0.985244
 171        1.090248      1.090249
 172        1.164218      1.164218
 173        1.190023      1.190023
 174        1.254980      1.254980
 175        1.300283      1.300283
 176        1.306136      1.306136
 177        1.364567      1.364567
 178        1.380942      1.380942
 179        1.441578      1.441578
 180        1.461183      1.461183
 181        1.531627      1.531627
 182        1.581509      1.581509
 183        1.628418      1.628418
 184        1.662543      1.662543
 185        1.711142      1.711142
 186        1.769155      1.769155
 187        1.816762      1.816762
 188        1.821509      1.821509
 189        1.869129      1.869129
 190        1.919684      1.919684
 191        1.941471      1.941471
 192        1.967379      1.967379
 193        7.577558      7.577558
 194        7.813969      7.813969
 195        8.141603      8.141603
 196        8.162185      8.162185
 197        8.409155      8.409155
 198        8.478282      8.478282
 199        8.641903      8.641903
 200        8.748721      8.748721
 201        8.827373      8.827373
 202        8.891389      8.891389
 203        8.967090      8.967090
 204        8.995128      8.995128
 205        9.071612      9.071612
 206        9.144251      9.144251
 207        9.210549      9.210549
 208        9.224565      9.224565
 209        9.482816      9.482816
 210        9.506803      9.506803
 211        9.615044      9.615044
 212        9.642826      9.642826
 213        9.663171      9.663171
 214        9.696504      9.696504
 215        9.699500      9.699500
 216        9.881622      9.881622
 217        9.906914      9.906914
 218        9.940632      9.940632
 219       10.064021     10.064021
 220       10.160105     10.160105
 221       10.436372     10.436372
 222       10.503435     10.503435
 223       10.585148     10.585148
 224       10.614808     10.614808
 225       10.633923     10.633923
 226       10.855363     10.855363
 227       11.246899     11.246900
 228       11.349176     11.349176
 229       11.429566     11.429566
 230       11.577902     11.577902
 231       11.737172     11.737172
 232       11.923586     11.923586
 233       12.270615     12.270615
 234       12.291848     12.291848
 235       12.448547     12.448548
 236       12.476327     12.476328
 237       12.585502     12.585502
 238       12.626290     12.626290
 239       12.691081     12.691081
 240       12.751425     12.751426
 241       12.861358     12.861358
 242       12.957102     12.957102
 243       13.049014     13.049014
 244       13.159105     13.159106
 245       13.248801     13.248801
 246       13.330565     13.330566
 247       13.400720     13.400720
 248       13.527896     13.527896
 249       13.703074     13.703074
 250       13.752215     13.752215
 251       13.808802     13.808803
 252       13.928622     13.928622
 253       14.032403     14.032404
 254       14.095262     14.095262
 255       14.150036     14.150037
 256       14.166664     14.166666
 257       14.202994     14.202996
 258       14.292255     14.291954
 259       14.302609     14.302790

  0.3750000E+00  0.3750000E+00  0.1250000E+00  0.6250000E-01
   1      -18.863510    -18.863510
   2      -18.848796    -18.848796
   3      -18.755088    -18.755088
   4      -18.726962    -18.726962
   5      -18.617351    -18.617351
   6      -18.613016    -18.613016
   7      -18.543953    -18.543953
   8      -18.535411    -18.535411
   9      -18.457969    -18.457969
  10      -18.441600    -18.441600
  11      -18.336861    -18.336861
  12      -18.324864    -18.324864
  13      -17.903937    -17.903937
  14      -17.814552    -17.814552
  15      -17.791484    -17.791484
  16      -17.772454    -17.772454
  17      -17.481651    -17.481651
  18      -17.344306    -17.344306
  19      -17.231517    -17.231517
  20      -17.142523    -17.142523
  21      -16.846730    -16.846730
  22      -16.785585    -16.785585
  23      -16.587895    -16.587895
  24      -16.559178    -16.559177
  25      -16.409587    -16.409587
  26      -16.393590    -16.393590
  27      -16.250437    -16.250437
  28      -16.209609    -16.209609
  29      -16.160182    -16.160182
  30      -16.122850    -16.122850
  31      -16.051091    -16.051091
  32      -16.028629    -16.028628
  33      -15.719563    -15.719563
  34      -15.706343    -15.706343
  35      -15.627285    -15.627285
  36      -15.594207    -15.594207
  37      -15.492801    -15.492801
  38      -15.468051    -15.468051
  39      -15.421472    -15.421472
  40      -15.386611    -15.386611
  41      -15.312189    -15.312189
  42      -15.295748    -15.295748
  43      -15.266674    -15.266674
  44      -15.236506    -15.236506
  45      -15.225964    -15.225964
  46      -15.211131    -15.211131
  47      -15.185151    -15.185151
  48      -15.163807    -15.163807
  49      -14.977509    -14.977509
  50      -14.961885    -14.961885
  51      -14.761602    -14.761602
  52      -14.748784    -14.748784
  53       -6.739944     -6.739943
  54       -6.637847     -6.637847
  55       -6.383597     -6.383597
  56       -6.353310     -6.353309
  57       -5.897932     -5.897932
  58       -5.856200     -5.856200
  59       -5.822046     -5.822046
  60       -5.750362     -5.750361
  61       -5.406142     -5.406142
  62       -5.377290     -5.377290
  63       -5.196124     -5.196124
  64       -5.124410     -5.124410
  65       -4.824883     -4.824883
  66       -4.759841     -4.759841
  67       -4.739473     -4.739473
  68       -4.725672     -4.725672