Automatically generated mesh
       8
Reciprocal lattice
    0.06250000000000    0.12500000000000    0.25000000000000             8
    0.18750000000000    0.12500000000000    0.25000000000000             8
    0.31250000000000    0.12500000000000    0.25000000000000             8
    0.43750000000000    0.12500000000000    0.25000000000000             8
    0.06250000000000    0.37500000000000    0.25000000000000             8
    0.18750000000000    0.37500000000000    0.25000000000000             8
    0.31250000000000    0.37500000000000    0.25000000000000             8
    0.43750000000000    0.37500000000000    0.25000000000000             8
Tetrahedra
        64    0.00260416666667
         4         1         1         2         6
         4         1         1         5         6
         4         1         5         5         6
         4         1         2         2         6
         4         1         2         6         6
         4         1         5         6         6
         4         2         2         3         7
         4         2         2         6         7
         4         2         6         6         7
         4         2         3         3         7
         4         2         3         7         7
         4         2         6         7         7
         4         3         3         4         8
         4         3         3         7         8
         4         3         7         7         8
         4         3         4         4         8
         4         3         4         8         8
         4         3         7         8         8
         8         4         4         4         8
         8         4         4         8         8
         8         4         8         8         8
         4         3         4         4         7
         4         4         4         7         8
         4         4         7         8         8
         4         3         3         4         7
         4         3         4         7         7
         4         4         7         7         8
         4         2         3         3         6
         4         3         3         6         7
         4         3         6         7         7
         4         2         2         3         6
         4         2         3         6         6
         4         3         6         6         7
         4         1         2         2         5
         4         2         2         5         6
         4         2         5         6         6
         4         1         1         2         5
         4         1         2         5         5
         4         2         5         5         6
         8         1         1         1         5
         8         1         1         5         5
         8         1         5         5         5
         8         5         5         6         6
         8         5         5         5         6
         8         5         6         6         6
         8         6         6         7         7
         8         6         6         6         7
         8         6         7         7         7
         8         7         7         8         8
         8         7         7         7         8
         8         7         8         8         8
        12         8         8         8         8
        12         5         5         5         5
         8         1         1         2         2
         8         1         1         1         2
         8         1         2         2         2
         8         2         2         3         3
         8         2         2         2         3
         8         2         3         3         3
         8         3         3         4         4
         8         3         3         3         4
         8         3         4         4         4
        12         4         4         4         4
        12         1         1         1         1
