<?xml version="1.0" encoding="ISO-8859-1"?>
<modeling>
 <generator>
  <i name="program" type="string">vasp </i>
  <i name="version" type="string">5.2.11  </i>
  <i name="subversion" type="string">01Dec10 complex  parallel </i>
  <i name="platform" type="string">unknown </i>
  <i name="date" type="string">2011 08 11 </i>
  <i name="time" type="string">15:44:48 </i>
 </generator>
 <incar>
  <i type="string" name="SYSTEM"> RubyVaspy :: P Fe Th</i>
  <i type="string" name="PREC">accurate</i>
  <i type="string" name="ALGO"> FAST</i>
  <i type="int" name="ISPIN">     2</i>
  <i type="int" name="IMIX">     1</i>
  <i type="int" name="ICHARG">     1</i>
  <i type="int" name="NELM">   100</i>
  <i type="int" name="NELMIN">     3</i>
  <i type="int" name="IBRION">     2</i>
  <i name="EDIFF">      0.00000200</i>
  <i type="int" name="NSW">   200</i>
  <i type="int" name="ISIF">     3</i>
  <i name="ENCUT">    520.00000000</i>
  <v name="MAGMOM">      0.60000000      0.60000000      0.60000000      0.60000000      0.60000000      0.60000000      0.60000000      0.60000000      0.60000000      0.60000000      0.60000000      0.60000000      5.00000000      5.00000000      5.00000000      5.00000000      5.00000000      5.00000000      5.00000000      5.00000000
      5.00000000      5.00000000      5.00000000      5.00000000      5.00000000      5.00000000      5.00000000      5.00000000      5.00000000      5.00000000      5.00000000      5.00000000      0.60000000      0.60000000      0.60000000      0.60000000</v>
  <i type="string" name="LREAL"> AUTO</i>
  <i type="int" name="ISMEAR">    -5</i>
  <i name="SIGMA">      0.05000000</i>
  <i type="logical" name="LWAVE"> T  </i>
  <i type="int" name="NELM">   100</i>
  <i type="logical" name="LPEAD"> F  </i>
  <i type="logical" name="LCALCPOL"> F  </i>
  <i type="logical" name="LCALCEPS"> F  </i>
  <v name="EFIELD_PEAD">      0.00000000      0.00000000      0.00000000</v>
  <i type="logical" name="LEFG"> F  </i>
  <i type="logical" name="LRHFATM"> F  </i>
  <i type="string" name="METAGGA">--</i>
  <i type="int" name="LMAXTAU">     0</i>
 </incar>
 <kpoints>
  <generation param="Monkhorst-Pack">
   <v type="int" name="divisions">       8        4        2 </v>
   <v name="usershift">      0.00000000       0.00000000       0.00000000 </v>
   <v name="genvec1">      0.12500000       0.00000000       0.00000000 </v>
   <v name="genvec2">      0.00000000       0.25000000       0.00000000 </v>
   <v name="genvec3">      0.00000000       0.00000000       0.50000000 </v>
   <v name="shift">      0.50000000       0.50000000       0.50000000 </v>
  </generation>
  <varray name="kpointlist" >
   <v>       0.06250000       0.12500000       0.25000000 </v>
   <v>       0.18750000       0.12500000       0.25000000 </v>
   <v>       0.31250000       0.12500000       0.25000000 </v>
   <v>       0.43750000       0.12500000       0.25000000 </v>
   <v>       0.06250000       0.37500000       0.25000000 </v>
   <v>       0.18750000       0.37500000       0.25000000 </v>
   <v>       0.31250000       0.37500000       0.25000000 </v>
   <v>       0.43750000       0.37500000       0.25000000 </v>
  </varray>
  <varray name="weights" >
   <v>       0.12500000 </v>
   <v>       0.12500000 </v>
   <v>       0.12500000 </v>
   <v>       0.12500000 </v>
   <v>       0.12500000 </v>
   <v>       0.12500000 </v>
   <v>       0.12500000 </v>
   <v>       0.12500000 </v>
  </varray>
  <varray name="tetrahedronlist"  type="int" >
   <v type="int" >        4        1        1        2        6 </v>
   <v type="int" >        4        1        1        5        6 </v>
   <v type="int" >        4        1        5        5        6 </v>
   <v type="int" >        4        1        2        2        6 </v>
   <v type="int" >        4        1        2        6        6 </v>
   <v type="int" >        4        1        5        6        6 </v>
   <v type="int" >        4        2        2        3        7 </v>
   <v type="int" >        4        2        2        6        7 </v>
   <v type="int" >        4        2        6        6        7 </v>
   <v type="int" >        4        2        3        3        7 </v>
   <v type="int" >        4        2        3        7        7 </v>
   <v type="int" >        4        2        6        7        7 </v>
   <v type="int" >        4        3        3        4        8 </v>
   <v type="int" >        4        3        3        7        8 </v>
   <v type="int" >        4        3        7        7        8 </v>
   <v type="int" >        4        3        4        4        8 </v>
   <v type="int" >        4        3        4        8        8 </v>
   <v type="int" >        4        3        7        8        8 </v>
   <v type="int" >        8        4        4        4        8 </v>
   <v type="int" >        8        4        4        8        8 </v>
   <v type="int" >        8        4        8        8        8 </v>
   <v type="int" >        4        3        4        4        7 </v>
   <v type="int" >        4        4        4        7        8 </v>
   <v type="int" >        4        4        7        8        8 </v>
   <v type="int" >        4        3        3        4        7 </v>
   <v type="int" >        4        3        4        7        7 </v>
   <v type="int" >        4        4        7        7        8 </v>
   <v type="int" >        4        2        3        3        6 </v>
   <v type="int" >        4        3        3        6        7 </v>
   <v type="int" >        4        3        6        7        7 </v>
   <v type="int" >        4        2        2        3        6 </v>
   <v type="int" >        4        2        3        6        6 </v>
   <v type="int" >        4        3        6        6        7 </v>
   <v type="int" >        4        1        2        2        5 </v>
   <v type="int" >        4        2        2        5        6 </v>
   <v type="int" >        4        2        5        6        6 </v>
   <v type="int" >        4        1        1        2        5 </v>
   <v type="int" >        4        1        2        5        5 </v>
   <v type="int" >        4        2        5        5        6 </v>
   <v type="int" >        8        1        1        1        5 </v>
   <v type="int" >        8        1        1        5        5 </v>
   <v type="int" >        8        1        5        5        5 </v>
   <v type="int" >        8        5        5        6        6 </v>
   <v type="int" >        8        5        5        5        6 </v>
   <v type="int" >        8        5        6        6        6 </v>
   <v type="int" >        8        6        6        7        7 </v>
   <v type="int" >        8        6        6        6        7 </v>
   <v type="int" >        8        6        7        7        7 </v>
   <v type="int" >        8        7        7        8        8 </v>
   <v type="int" >        8        7        7        7        8 </v>
   <v type="int" >        8        7        8        8        8 </v>
   <v type="int" >       12        8        8        8        8 </v>
   <v type="int" >       12        5        5        5        5 </v>
   <v type="int" >        8        1        1        2        2 </v>
   <v type="int" >        8        1        1        1        2 </v>
   <v type="int" >        8        1        2        2        2 </v>
   <v type="int" >        8        2        2        3        3 </v>
   <v type="int" >        8        2        2        2        3 </v>
   <v type="int" >        8        2        3        3        3 </v>
   <v type="int" >        8        3        3        4        4 </v>
   <v type="int" >        8        3        3        3        4 </v>
   <v type="int" >        8        3        4        4        4 </v>
   <v type="int" >       12        4        4        4        4 </v>
   <v type="int" >       12        1        1        1        1 </v>
  </varray>
  <i name="volumeweight">      0.00260417 </i>
 </kpoints>
 <parameters>
  <separator name="general" >
   <i type="string" name="SYSTEM">RubyVaspy :: P Fe Th</i>
   <i type="logical" name="LCOMPAT"> F  </i>
  </separator>
  <separator name="electronic" >
   <i type="string" name="PREC">accura</i>
   <i name="ENMAX">    520.00000000</i>
   <i name="ENAUG">    578.34200000</i>
   <i name="EDIFF">      0.00000200</i>
   <i type="int" name="IALGO">    68</i>
   <i type="int" name="IWAVPR">    11</i>
   <i type="int" name="NBANDS">   287</i>
   <i name="NELECT">    388.00000000</i>
   <i type="int" name="TURBO">     0</i>
   <i type="int" name="IRESTART">     0</i>
   <i type="int" name="NREBOOT">     0</i>
   <i type="int" name="NMIN">     0</i>
   <i name="EREF">      0.00000000</i>
   <separator name="electronic smearing" >
    <i type="int" name="ISMEAR">    -5</i>
    <i name="SIGMA">      0.05000000</i>
    <i name="KSPACING">      0.50000000</i>
    <i type="logical" name="KGAMMA"> T  </i>
   </separator>
   <separator name="electronic projectors" >
    <i type="logical" name="LREAL"> T  </i>
    <v name="ROPT">     -0.00025000     -0.00025000     -0.00025000</v>
    <i type="int" name="LMAXPAW">  -100</i>
    <i type="int" name="LMAXMIX">     2</i>
   </separator>
   <separator name="electronic startup" >
    <i type="int" name="ISTART">     0</i>
    <i type="int" name="ICHARG">     1</i>
    <i type="int" name="INIWAV">     1</i>
   </separator>
   <separator name="electronic spin" >
    <i type="int" name="ISPIN">     2</i>
    <i type="logical" name="LNONCOLLINEAR"> F  </i>
    <v name="MAGMOM">      0.60000000      0.60000000      0.60000000      0.60000000      0.60000000      0.60000000      0.60000000      0.60000000      0.60000000      0.60000000      0.60000000      0.60000000      5.00000000      5.00000000      5.00000000      5.00000000      5.00000000      5.00000000      5.00000000      5.00000000
      5.00000000      5.00000000      5.00000000      5.00000000      5.00000000      5.00000000      5.00000000      5.00000000      5.00000000      5.00000000      5.00000000      5.00000000      0.60000000      0.60000000      0.60000000      0.60000000</v>
    <i name="NUPDOWN">     -1.00000000</i>
    <i type="logical" name="LSORBIT"> F  </i>
    <v name="SAXIS">      0.00000000      0.00000000      1.00000000</v>
    <i type="logical" name="LSPIRAL"> F  </i>
    <v name="QSPIRAL">      0.00000000      0.00000000      0.00000000</v>
    <i type="logical" name="LZEROZ"> F  </i>
   </separator>
   <separator name="electronic exchange-correlation" >
    <i type="logical" name="LASPH"> F  </i>
    <i type="logical" name="LMETAGGA"> F  </i>
   </separator>
   <separator name="electronic convergence" >
    <i type="int" name="NELM">   100</i>
    <i type="int" name="NELMDL">    -5</i>
    <i type="int" name="NELMIN">     3</i>
    <i name="ENINI">    520.00000000</i>
    <separator name="electronic convergence detail" >
     <i type="logical" name="LDIAG"> T  </i>
     <i type="logical" name="LSUBROT"> T  </i>
     <i name="WEIMIN">      0.00100000</i>
     <i name="EBREAK">      0.00000000</i>
     <i name="DEPER">      0.30000000</i>
     <i type="int" name="NRMM">     4</i>
     <i name="TIME">      0.40000000</i>
    </separator>
   </separator>
   <separator name="electronic mixer" >
    <i name="AMIX">      0.40000000</i>
    <i name="BMIX">      1.00000000</i>
    <i name="AMIN">      0.10000000</i>
    <i name="AMIX_MAG">      1.60000000</i>
    <i name="BMIX_MAG">      1.00000000</i>
    <separator name="electronic mixer details" >
     <i type="int" name="IMIX">     1</i>
     <i type="int" name="MAXMIX">   -45</i>
     <i name="WC">    100.00000000</i>
     <i type="int" name="INIMIX">     1</i>
     <i type="int" name="MIXPRE">     1</i>
     <i type="int" name="MREMOVE">     5</i>
    </separator>
   </separator>
   <separator name="electronic dipolcorrection" >
    <i type="logical" name="LDIPOL"> F  </i>
    <i type="logical" name="LMONO"> F  </i>
    <i type="int" name="IDIPOL">     0</i>
    <i name="EPSILON">      1.00000000</i>
    <v name="DIPOL">   -100.00000000   -100.00000000   -100.00000000</v>
    <i name="EFIELD">      0.00000000</i>
   </separator>
  </separator>
  <separator name="grids" >
   <i type="int" name="NGX">    28</i>
   <i type="int" name="NGY">    80</i>
   <i type="int" name="NGZ">    90</i>
   <i type="int" name="NGXF">    56</i>
   <i type="int" name="NGYF">   160</i>
   <i type="int" name="NGZF">   180</i>
   <i type="logical" name="ADDGRID"> F  </i>
  </separator>
  <separator name="ionic" >
   <i type="int" name="NSW">   200</i>
   <i type="int" name="IBRION">     2</i>
   <i type="int" name="ISIF">     3</i>
   <i name="PSTRESS">      0.00000000</i>
   <i name="EDIFFG">      0.00002000</i>
   <i type="int" name="NFREE">     1</i>
   <i name="POTIM">      0.50000000</i>
   <i name="SMASS">     -3.00000000</i>
  </separator>
  <separator name="ionic md" >
   <i name="TEBEG">      0.00010000</i>
   <i name="TEEND">      0.00010000</i>
   <i type="int" name="NBLOCK">     1</i>
   <i type="int" name="KBLOCK">   200</i>
   <i type="int" name="NPACO">   256</i>
   <i name="APACO">     16.00000000</i>
  </separator>
  <separator name="symmetry" >
   <i type="int" name="ISYM">     2</i>
   <i name="SYMPREC">      0.00001000</i>
  </separator>
  <separator name="dos" >
   <i type="logical" name="LORBIT"> F  </i>
   <v name="RWIGS">     -1.00000000     -1.00000000     -1.00000000</v>
   <i type="int" name="NEDOS">   301</i>
   <i name="EMIN">     10.00000000</i>
   <i name="EMAX">    -10.00000000</i>
   <i name="EFERMI">      0.00000000</i>
  </separator>
  <separator name="writing" >
   <i type="int" name="NWRITE">     2</i>
   <i type="logical" name="LWAVE"> T  </i>
   <i type="logical" name="LCHARG"> T  </i>
   <i type="logical" name="LPARD"> F  </i>
   <i type="logical" name="LVTOT"> F  </i>
   <i type="logical" name="LVHAR"> F  </i>
   <i type="logical" name="LELF"> F  </i>
   <i type="logical" name="LOPTICS"> F  </i>
   <v name="STM">      0.00000000      0.00000000      0.00000000      0.00000000      0.00000000</v>
  </separator>
  <separator name="performance" >
   <i type="int" name="NPAR">     1</i>
   <i type="int" name="NSIM">     4</i>
   <i type="int" name="NBLK">    -1</i>
   <i type="logical" name="LPLANE"> T  </i>
   <i type="logical" name="LSCALAPACK"> T  </i>
   <i type="logical" name="LSCAAWARE"> F  </i>
   <i type="logical" name="LSCALU"> F  </i>
   <i type="logical" name="LASYNC"> F  </i>
   <i type="logical" name="LORBITALREAL"> F  </i>
  </separator>
  <separator name="miscellaneous" >
   <i type="int" name="IDIOT">     3</i>
   <i type="logical" name="LMUSIC"> F  </i>
   <v name="POMASS">     30.97400000     55.84700000    232.03900000</v>
   <v name="DARWINR">      0.00000000      0.00000000      0.00000000</v>
   <v name="DARWINV">      1.00000000      1.00000000      1.00000000</v>
   <i type="logical" name="LCORR"> T  </i>
  </separator>
  <i type="logical" name="GGA_COMPAT"> T  </i>
  <i type="logical" name="LBERRY"> F  </i>
  <i type="int" name="ICORELEVEL">     0</i>
  <i type="logical" name="LDAU"> F  </i>
  <i type="int" name="I_CONSTRAINED_M">     0</i>
  <separator name="electronic exchange-correlation" >
   <i type="string" name="GGA">--</i>
   <i type="int" name="VOSKOWN">     0</i>
   <i type="logical" name="LHFCALC"> F  </i>
   <i type="string" name="PRECFOCK"></i>
   <i type="logical" name="LHFONE"> F  </i>
   <i type="logical" name="LRHFCALC"> F  </i>
   <i type="logical" name="LTHOMAS"> F  </i>
   <i type="logical" name="LMODELHF"> F  </i>
   <i name="ENCUT4O">     -1.00000000</i>
   <i type="int" name="EXXOEP">     0</i>
   <i type="int" name="FOURORBIT">     0</i>
   <i name="AEXX">      0.00000000</i>
   <i name="HFALPHA">      0.00000000</i>
   <i name="ALDAX">      1.00000000</i>
   <i name="AGGAX">      1.00000000</i>
   <i name="ALDAC">      1.00000000</i>
   <i name="AGGAC">      1.00000000</i>
   <i type="int" name="NKREDX">     1</i>
   <i type="int" name="NKREDY">     1</i>
   <i type="int" name="NKREDZ">     1</i>
   <i type="logical" name="SHIFTRED"> F  </i>
   <i type="logical" name="ODDONLY"> F  </i>
   <i type="logical" name="EVENONLY"> F  </i>
   <i type="int" name="LMAXFOCK">     0</i>
   <i type="int" name="NMAXFOCKAE">     0</i>
   <i type="logical" name="LFOCKAEDFT"> F  </i>
   <i name="HFSCREEN">      0.00000000</i>
   <i name="HFSCREENC">      0.00000000</i>
  </separator>
  <separator name="model GW" >
   <i type="int" name="MODEL_GW">     0</i>
   <i name="MODEL_EPS0">      8.04347093</i>
   <i name="MODEL_ALPHA">      1.00000000</i>
  </separator>
  <separator name="linear response parameters" >
   <i type="logical" name="LEPSILON"> F  </i>
   <i type="logical" name="LRPA"> F  </i>
   <i type="logical" name="LNABLA"> F  </i>
   <i type="logical" name="LVEL"> F  </i>
   <i type="int" name="KINTER">     0</i>
   <i name="CSHIFT">      0.10000000</i>
   <i name="OMEGAMAX">     -1.00000000</i>
  </separator>
  <separator name="orbital magnetization" >
   <i type="logical" name="ORBITALMAG"> F  </i>
   <i type="logical" name="LMAGBLOCH"> F  </i>
   <i type="logical" name="LCHIMAG"> F  </i>
   <i type="logical" name="LGAUGE"> T  </i>
   <i type="int" name="MAGATOM">     0</i>
   <v name="MAGDIPOL">      0.00000000      0.00000000      0.00000000</v>
   <v name="AVECCONST">      0.00000000      0.00000000      0.00000000</v>
  </separator>
  <separator name="response functions" >
   <i type="logical" name="LRPA"> T  </i>
   <i type="logical" name="LTCTE"> F  </i>
   <i type="logical" name="LTETE"> F  </i>
   <i type="logical" name="L2ORDER"> F  </i>
   <i type="logical" name="LUSEW"> F  </i>
   <i name="ENCUTGW">     -2.00000000</i>
   <i name="ENCUTGWSOFT">     -2.00000000</i>
   <i name="ENCUTLF">     -1.00000000</i>
   <i type="int" name="LMAXMP2">    -1</i>
   <i name="SCISSOR">      0.00000000</i>
   <i type="int" name="NOMEGA">     0</i>
   <i type="int" name="NOMEGAR">     0</i>
   <i type="int" name="NBANDSGW">    -1</i>
   <i type="int" name="NBANDSO">    -1</i>
   <i type="int" name="NBANDSV">    -1</i>
   <i type="int" name="NELM">   100</i>
   <i type="int" name="DIM">     3</i>
   <i type="int" name="ANTIRES">     0</i>
   <i name="OMEGAMAX">    -30.00000000</i>
   <i name="OMEGATL">   -200.00000000</i>
   <i type="int" name="OMEGAGRID">     0</i>
   <i name="CSHIFT">     -0.10000000</i>
   <i type="logical" name="SELFENERGY"> F  </i>
   <i type="logical" name="LSPECTRAL"> F  </i>
   <i type="logical" name="ODDONLYGW"> F  </i>
   <i type="logical" name="EVENONLYGW"> F  </i>
   <i type="int" name="NKREDLFX">     1</i>
   <i type="int" name="NKREDLFY">     1</i>
   <i type="int" name="NKREDLFZ">     1</i>
   <i type="int" name="MAXMEM">  1800</i>
   <i type="int" name="TELESCOPE">     0</i>
  </separator>
 </parameters>
 <atominfo>
  <atoms>      36 </atoms>
  <types>       3 </types>
  <array name="atoms" >
   <dimension dim="1">ion</dimension>
   <field type="string">element</field>
   <field type="int">atomtype</field>
   <set>
    <rc><c>P </c><c>   1</c></rc>
    <rc><c>P </c><c>   1</c></rc>
    <rc><c>P </c><c>   1</c></rc>
    <rc><c>P </c><c>   1</c></rc>
    <rc><c>P </c><c>   1</c></rc>
    <rc><c>P </c><c>   1</c></rc>
    <rc><c>P </c><c>   1</c></rc>
    <rc><c>P </c><c>   1</c></rc>
    <rc><c>P </c><c>   1</c></rc>
    <rc><c>P </c><c>   1</c></rc>
    <rc><c>P </c><c>   1</c></rc>
    <rc><c>P </c><c>   1</c></rc>
    <rc><c>Fe</c><c>   2</c></rc>
    <rc><c>Fe</c><c>   2</c></rc>
    <rc><c>Fe</c><c>   2</c></rc>
    <rc><c>Fe</c><c>   2</c></rc>
    <rc><c>Fe</c><c>   2</c></rc>
    <rc><c>Fe</c><c>   2</c></rc>
    <rc><c>Fe</c><c>   2</c></rc>
    <rc><c>Fe</c><c>   2</c></rc>
    <rc><c>Fe</c><c>   2</c></rc>
    <rc><c>Fe</c><c>   2</c></rc>
    <rc><c>Fe</c><c>   2</c></rc>
    <rc><c>Fe</c><c>   2</c></rc>
    <rc><c>Fe</c><c>   2</c></rc>
    <rc><c>Fe</c><c>   2</c></rc>
    <rc><c>Fe</c><c>   2</c></rc>
    <rc><c>Fe</c><c>   2</c></rc>
    <rc><c>Fe</c><c>   2</c></rc>
    <rc><c>Fe</c><c>   2</c></rc>
    <rc><c>Fe</c><c>   2</c></rc>
    <rc><c>Fe</c><c>   2</c></rc>
    <rc><c>Th</c><c>   3</c></rc>
    <rc><c>Th</c><c>   3</c></rc>
    <rc><c>Th</c><c>   3</c></rc>
    <rc><c>Th</c><c>   3</c></rc>
   </set>
  </array>
  <array name="atomtypes" >
   <dimension dim="1">type</dimension>
   <field type="int">atomspertype</field>
   <field type="string">element</field>
   <field>mass</field>
   <field>valence</field>
   <field type="string">pseudopotential</field>
   <set>
    <rc><c>  12</c><c>P </c><c>     30.97400000</c><c>      5.00000000</c><c>  PAW_PBE P 17Jan2003                   </c></rc>
    <rc><c>  20</c><c>Fe</c><c>     55.84700000</c><c>     14.00000000</c><c> PAW_PBE Fe_pv 06Sep2000                </c></rc>
    <rc><c>   4</c><c>Th</c><c>    232.03900000</c><c>     12.00000000</c><c> PAW_PBE Th 07Sep2000                   </c></rc>
   </set>
  </array>
 </atominfo>
 <structure name="initialpos" >
  <crystal>
   <varray name="basis" >
    <v>       3.76700000       0.00000000       0.00000000 </v>
    <v>       0.00000000      10.58100000       0.00000000 </v>
    <v>       0.00000000       0.00000000      12.10800000 </v>
   </varray>
   <i name="volume">    482.60825572 </i>
   <varray name="rec_basis" >
    <v>       0.26546323       0.00000000       0.00000000 </v>
    <v>       0.00000000       0.09450903       0.00000000 </v>
    <v>       0.00000000       0.00000000       0.08259002 </v>
   </varray>
  </crystal>
  <varray name="positions" >
   <v>       0.25000000       0.60500000       0.39400000 </v>
   <v>       0.75000000       0.39500000       0.60600000 </v>
   <v>       0.75000000       0.10500000       0.10600000 </v>
   <v>       0.25000000       0.89500000       0.89400000 </v>
   <v>       0.75000000       0.77220000       0.63110000 </v>
   <v>       0.25000000       0.22780000       0.36890000 </v>
   <v>       0.25000000       0.42160000       0.11090000 </v>
   <v>       0.75000000       0.57840000       0.88910000 </v>
   <v>       0.75000000       0.92160000       0.38910000 </v>
   <v>       0.25000000       0.07840000       0.61090000 </v>
   <v>       0.25000000       0.27220000       0.86890000 </v>
   <v>       0.75000000       0.72780000       0.13110000 </v>
   <v>       0.25000000       0.40410000       0.49010000 </v>
   <v>       0.75000000       0.72090000       0.32490000 </v>
   <v>       0.75000000       0.77910000       0.82490000 </v>
   <v>       0.25000000       0.27910000       0.67510000 </v>
   <v>       0.25000000       0.62090000       0.19790000 </v>
   <v>       0.75000000       0.37910000       0.80210000 </v>
   <v>       0.75000000       0.12090000       0.30210000 </v>
   <v>       0.25000000       0.87910000       0.69790000 </v>
   <v>       0.25000000       0.03370000       0.43390000 </v>
   <v>       0.75000000       0.96630000       0.56610000 </v>
   <v>       0.75000000       0.53370000       0.06610000 </v>
   <v>       0.25000000       0.46630000       0.93390000 </v>
   <v>       0.75000000       0.90410000       0.00990000 </v>
   <v>       0.25000000       0.09590000       0.99010000 </v>
   <v>       0.25000000       0.70440000       0.98810000 </v>
   <v>       0.75000000       0.29560000       0.01190000 </v>
   <v>       0.75000000       0.20440000       0.51190000 </v>
   <v>       0.25000000       0.79560000       0.48810000 </v>
   <v>       0.25000000       0.22090000       0.17510000 </v>
   <v>       0.75000000       0.59590000       0.50990000 </v>
   <v>       0.25000000       0.58165000       0.70409000 </v>
   <v>       0.75000000       0.41835000       0.29591000 </v>
   <v>       0.75000000       0.08165000       0.79591000 </v>
   <v>       0.25000000       0.91835000       0.20409000 </v>
  </varray>
 </structure>
 <calculation>
  <scstep>
   <time name="dav">   60.92   60.93</time>
   <time name="total">   61.59   64.35</time>
   <energy>
    <i name="alphaZ">   3270.50658966 </i>
    <i name="ewald"> -38472.38967208 </i>
    <i name="hartreedc"> -16171.48426452 </i>
    <i name="XCdc">   1584.15223522 </i>
    <i name="pawpsdc">  39589.18122678 </i>
    <i name="pawaedc"> -41172.31179902 </i>
    <i name="eentropy">      0.00000000 </i>
    <i name="bandstr">   2313.30261664 </i>
    <i name="atom">  55184.31919969 </i>
    <i name="e_fr_energy">   6125.27613238 </i>
    <i name="e_wo_entrp">   6125.27613238 </i>
    <i name="e_0_energy">   6125.27613238 </i>
   </energy>
  </scstep>
  <scstep>
   <time name="dav">   59.34   59.33</time>
   <time name="total">   59.51   61.22</time>
   <energy>
    <i name="e_fr_energy">    761.38702482 </i>
    <i name="e_wo_entrp">    761.38702482 </i>
    <i name="e_0_energy">    761.38702482 </i>
   </energy>
  </scstep>
  <scstep>
   <time name="dav">   60.20   60.20</time>
   <time name="total">   60.38   60.37</time>
   <energy>
    <i name="e_fr_energy">   -164.83044189 </i>
    <i name="e_wo_entrp">   -164.83044189 </i>
    <i name="e_0_energy">   -164.83044189 </i>
   </energy>
  </scstep>
  <scstep>
   <time name="dav">   87.19   87.19</time>
   <time name="total">   87.33   87.42</time>
   <energy>
    <i name="e_fr_energy">   -292.39443172 </i>
    <i name="e_wo_entrp">   -292.39443172 </i>
    <i name="e_0_energy">   -292.39443172 </i>
   </energy>
  </scstep>
  <scstep>
   <time name="dav">   87.23   87.24</time>
   <time name="total">   89.67   89.68</time>
   <energy>
    <i name="e_fr_energy">   -299.30266276 </i>
    <i name="e_wo_entrp">   -299.30266276 </i>
    <i name="e_0_energy">   -299.30266276 </i>
   </energy>
  </scstep>
  <scstep>
   <time name="diag">    8.99    8.99</time>
   <time name="diis">   40.17   40.17</time>
   <time name="orth">    1.49    1.49</time>
   <time name="total">   53.65   53.86</time>
   <energy>
    <i name="e_fr_energy">   -363.06703664 </i>
    <i name="e_wo_entrp">   -363.06703664 </i>
    <i name="e_0_energy">   -363.06703664 </i>
   </energy>
  </scstep>
  <scstep>
   <time name="diag">    8.98    8.98</time>
   <time name="diis">   41.49   41.49</time>
   <time name="orth">    1.49    1.49</time>
   <time name="total">   54.92   54.93</time>
   <energy>
    <i name="e_fr_energy">   -654.98076624 </i>
    <i name="e_wo_entrp">   -654.98076624 </i>
    <i name="e_0_energy">   -654.98076624 </i>
   </energy>
  </scstep>
  <scstep>
   <time name="diag">    8.99    8.99</time>
   <time name="diis">   47.55   47.55</time>
   <time name="orth">    1.49    1.49</time>
   <time name="total">   61.00   61.01</time>
   <energy>
    <i name="e_fr_energy">  -2319.94231445 </i>
    <i name="e_wo_entrp">  -2319.94231445 </i>
    <i name="e_0_energy">  -2319.94231445 </i>
   </energy>
  </scstep>
  <scstep>
   <time name="diag">    8.98    8.97</time>
   <time name="diis">   56.20   56.20</time>
   <time name="orth">    1.50    1.49</time>
   <time name="total">   69.86   72.17</time>
   <energy>
    <i name="e_fr_energy">  -3093.67705191 </i>
    <i name="e_wo_entrp">  -3093.67705191 </i>
    <i name="e_0_energy">  -3093.67705191 </i>
   </energy>
  </scstep>
  <scstep>
   <time name="diag">    8.96    8.96</time>
   <time name="diis">   53.62   53.63</time>
   <time name="orth">    1.49    1.49</time>
   <time name="total">   67.05   67.05</time>
   <energy>
    <i name="e_fr_energy">  -2173.83138115 </i>
    <i name="e_wo_entrp">  -2173.83138115 </i>
    <i name="e_0_energy">  -2173.83138115 </i>
   </energy>
  </scstep>
  <scstep>
   <time name="diag">    8.99    8.99</time>
   <time name="diis">   56.01   56.01</time>
   <time name="orth">    1.49    1.49</time>
   <time name="total">   69.71   69.71</time>
   <energy>
    <i name="e_fr_energy">  -2567.11439764 </i>
    <i name="e_wo_entrp">  -2567.11439764 </i>
    <i name="e_0_energy">  -2567.11439764 </i>
   </energy>
  </scstep>
  <scstep>
   <time name="diag">    8.98    8.98</time>
   <time name="diis">   57.83   57.83</time>
   <time name="orth">    1.49    1.49</time>
   <time name="total">   71.31   71.31</time>
   <energy>
    <i name="e_fr_energy">  -1914.40188043 </i>
    <i name="e_wo_entrp">  -1914.40188043 </i>
    <i name="e_0_energy">  -1914.40188043 </i>
   </energy>
  </scstep>
  <scstep>
   <time name="diag">    9.00    8.99</time>
   <time name="diis">   56.37   56.37</time>
   <time name="orth">    1.49    1.49</time>
   <time name="total">   70.13   70.49</time>
   <energy>
    <i name="e_fr_energy">  -2174.25822286 </i>
    <i name="e_wo_entrp">  -2174.25822286 </i>
    <i name="e_0_energy">  -2174.25822286 </i>
   </energy>
  </scstep>
  <scstep>
   <time name="diag">    8.99    8.99</time>
   <time name="diis">   58.90   58.90</time>
   <time name="orth">    1.49    1.49</time>
   <time name="total">   72.39   72.40</time>
   <energy>
    <i name="e_fr_energy">  -1803.43485776 </i>
    <i name="e_wo_entrp">  -1803.43485776 </i>
    <i name="e_0_energy">  -1803.43485776 </i>
   </energy>
  </scstep>
  <scstep>
   <time name="diag">    8.98    8.99</time>
   <time name="diis">   56.36   56.36</time>
   <time name="orth">    1.49    1.49</time>
   <time name="total">   70.00   70.01</time>
   <energy>
    <i name="e_fr_energy">  -1490.43125784 </i>
    <i name="e_wo_entrp">  -1490.43125784 </i>
    <i name="e_0_energy">  -1490.43125784 </i>
   </energy>
  </scstep>
  <scstep>
   <time name="diag">    8.99    8.99</time>
   <time name="diis">   58.22   58.22</time>
   <time name="orth">    1.50    1.49</time>
   <time name="total">   71.88   72.22</time>
   <energy>
    <i name="e_fr_energy">  -1400.55221810 </i>
    <i name="e_wo_entrp">  -1400.55221810 </i>
    <i name="e_0_energy">  -1400.55221810 </i>
   </energy>
  </scstep>
  <scstep>
   <time name="diag">    9.00    8.99</time>
   <time name="diis">   54.87   54.87</time>
   <time name="orth">    1.49    1.49</time>
   <time name="total">   68.54   68.66</time>
   <energy>
    <i name="e_fr_energy">  -1107.23883515 </i>
    <i name="e_wo_entrp">  -1107.23883515 </i>
    <i name="e_0_energy">  -1107.23883515 </i>
   </energy>
  </scstep>
  <scstep>
   <time name="diag">    9.00    9.00</time>
   <time name="diis">   57.90   57.89</time>
   <time name="orth">    1.49    1.49</time>
   <time name="total">   71.42   71.42</time>
   <energy>
    <i name="e_fr_energy">  -1531.68244355 </i>
    <i name="e_wo_entrp">  -1531.68244355 </i>
    <i name="e_0_energy">  -1531.68244355 </i>
   </energy>
  </scstep>
  <scstep>
   <time name="diag">    9.00    8.99</time>
   <time name="diis">   56.78   56.78</time>
   <time name="orth">    1.49    1.49</time>
   <time name="total">   70.27   70.27</time>
   <energy>
    <i name="e_fr_energy">  -1168.38003638 </i>
    <i name="e_wo_entrp">  -1168.38003638 </i>
    <i name="e_0_energy">  -1168.38003638 </i>
   </energy>
  </scstep>
  <scstep>
   <time name="diag">    8.99    8.99</time>
   <time name="diis">   56.50   56.50</time>
   <time name="orth">    1.49    1.49</time>
   <time name="total">   70.14   70.15</time>
   <energy>
    <i name="e_fr_energy">  -1012.66077801 </i>
    <i name="e_wo_entrp">  -1012.66077801 </i>
    <i name="e_0_energy">  -1012.66077801 </i>
   </energy>
  </scstep>
  <scstep>
   <time name="diag">    8.99    8.99</time>
   <time name="diis">   57.94   57.94</time>
   <time name="orth">    1.49    1.49</time>
   <time name="total">   71.44   71.52</time>
   <energy>
    <i name="e_fr_energy">   -344.67428192 </i>
    <i name="e_wo_entrp">   -344.67428192 </i>
    <i name="e_0_energy">   -344.67428192 </i>
   </energy>
  </scstep>
  <scstep>
   <time name="diag">    8.98    8.98</time>
   <time name="diis">   56.16   56.16</time>
   <time name="orth">    1.49    1.49</time>
   <time name="total">   69.72   69.73</time>
   <energy>
    <i name="e_fr_energy">  -1034.00249943 </i>
    <i name="e_wo_entrp">  -1034.00249943 </i>
    <i name="e_0_energy">  -1034.00249943 </i>
   </energy>
  </scstep>
  <scstep>
   <time name="diag">    9.00    9.00</time>
   <time name="diis">   57.26   57.26</time>
   <time name="orth">    1.49    1.49</time>
   <time name="total">   70.76   71.11</time>
   <energy>
    <i name="e_fr_energy">  -1428.74369498 </i>
    <i name="e_wo_entrp">  -1428.74369498 </i>
    <i name="e_0_energy">  -1428.74369498 </i>
   </energy>
  </scstep>
  <scstep>
   <time name="diag">    8.98    8.99</time>
   <time name="diis">   56.16   56.16</time>
   <time name="orth">    1.49    1.49</time>
   <time name="total">   69.64   69.63</time>
   <energy>
    <i name="e_fr_energy">   -877.71604088 </i>
    <i name="e_wo_entrp">   -877.71604088 </i>
    <i name="e_0_energy">   -877.71604088 </i>
   </energy>
  </scstep>
  <scstep>
   <time name="diag">    9.00    9.00</time>
   <time name="diis">   56.03   56.03</time>
   <time name="orth">    1.49    1.49</time>
   <time name="total">   69.67   69.67</time>
   <energy>
    <i name="e_fr_energy">   -967.59024810 </i>
    <i name="e_wo_entrp">   -967.59024810 </i>
    <i name="e_0_energy">   -967.59024810 </i>
   </energy>
  </scstep>
  <scstep>
   <time name="diag">    8.99    8.99</time>
   <time name="diis">   56.96   56.96</time>
   <time name="orth">    1.49    1.49</time>
   <time name="total">   70.44   70.44</time>
   <energy>
    <i name="e_fr_energy">   -737.03374831 </i>
    <i name="e_wo_entrp">   -737.03374831 </i>
    <i name="e_0_energy">   -737.03374831 </i>
   </energy>
  </scstep>
  <scstep>
   <time name="diag">    8.99    8.99</time>
   <time name="diis">   55.56   55.56</time>
   <time name="orth">    1.49    1.49</time>
   <time name="total">   69.08   69.08</time>
   <energy>
    <i name="e_fr_energy">  -1844.17495513 </i>
    <i name="e_wo_entrp">  -1844.17495513 </i>
    <i name="e_0_energy">  -1844.17495513 </i>
   </energy>
  </scstep>
  <scstep>
   <time name="diag">    9.01    9.01</time>
   <time name="diis">   56.74   56.74</time>
   <time name="orth">    1.49    1.49</time>
   <time name="total">   70.24   70.25</time>
   <energy>
    <i name="e_fr_energy">  -1750.10106216 </i>
    <i name="e_wo_entrp">  -1750.10106216 </i>
    <i name="e_0_energy">  -1750.10106216 </i>
   </energy>
  </scstep>
  <scstep>
   <time name="diag">    8.99    8.99</time>
   <time name="diis">   56.61   56.60</time>
   <time name="orth">    1.49    1.49</time>
   <time name="total">   70.08   70.43</time>
   <energy>
    <i name="e_fr_energy">    -69.03778993 </i>
    <i name="e_wo_entrp">    -69.03778993 </i>
    <i name="e_0_energy">    -69.03778993 </i>
   </energy>
  </scstep>
  <scstep>
   <time name="diag">    9.00    9.00</time>
   <time name="diis">   55.01   55.02</time>
   <time name="orth">    1.49    1.49</time>
   <time name="total">   68.52   69.79</time>
   <energy>
    <i name="e_fr_energy">   -582.81433198 </i>
    <i name="e_wo_entrp">   -582.81433198 </i>
    <i name="e_0_energy">   -582.81433198 </i>
   </energy>
  </scstep>
  <scstep>
   <time name="diag">    8.99    8.99</time>
   <time name="diis">   56.49   56.49</time>
   <time name="orth">    1.49    1.49</time>
   <time name="total">   70.14   70.13</time>
   <energy>
    <i name="e_fr_energy">  -1646.09592957 </i>
    <i name="e_wo_entrp">  -1646.09592957 </i>
    <i name="e_0_energy">  -1646.09592957 </i>
   </energy>
  </scstep>
  <scstep>
   <time name="diag">    8.99    8.99</time>
   <time name="diis">   58.62   58.62</time>
   <time name="orth">    1.49    1.49</time>
   <time name="total">   72.11   72.11</time>
   <energy>
    <i name="e_fr_energy">  -2190.95954054 </i>
    <i name="e_wo_entrp">  -2190.95954054 </i>
    <i name="e_0_energy">  -2190.95954054 </i>
   </energy>
  </scstep>
  <scstep>
   <time name="diag">    8.99    8.99</time>
   <time name="diis">   54.76   54.75</time>
   <time name="orth">    1.49    1.49</time>
   <time name="total">   68.27   68.27</time>
   <energy>
    <i name="e_fr_energy">   -914.73808546 </i>
    <i name="e_wo_entrp">   -914.73808546 </i>
    <i name="e_0_energy">   -914.73808546 </i>
   </energy>
  </scstep>
  <scstep>
   <time name="diag">    8.98    8.98</time>
   <time name="diis">   56.07   56.07</time>
   <time name="orth">    1.49    1.49</time>
   <time name="total">   69.52   69.53</time>
   <energy>
    <i name="e_fr_energy">  -1061.80029456 </i>
    <i name="e_wo_entrp">  -1061.80029456 </i>
    <i name="e_0_energy">  -1061.80029456 </i>
   </energy>
  </scstep>
  <scstep>
   <time name="diag">    8.99    8.99</time>
   <time name="diis">   55.87   55.87</time>
   <time name="orth">    1.49    1.49</time>
   <time name="total">   69.47   69.48</time>
   <energy>
    <i name="e_fr_energy">  -1552.03830958 </i>
    <i name="e_wo_entrp">  -1552.03830958 </i>
    <i name="e_0_energy">  -1552.03830958 </i>
   </energy>
  </scstep>
  <scstep>
   <time name="diag">    8.98    8.98</time>
   <time name="diis">   56.84   56.84</time>
   <time name="orth">    1.49    1.49</time>
   <time name="total">   70.40   70.40</time>
   <energy>
    <i name="e_fr_energy">  -1037.95469746 </i>
    <i name="e_wo_entrp">  -1037.95469746 </i>
    <i name="e_0_energy">  -1037.95469746 </i>
   </energy>
  </scstep>
  <scstep>
   <time name="diag">    8.98    8.99</time>
   <time name="diis">   57.64   57.63</time>
   <time name="orth">    1.49    1.49</time>
   <time name="total">   71.15   71.74</time>
   <energy>
    <i name="e_fr_energy">   -259.39248537 </i>
    <i name="e_wo_entrp">   -259.39248537 </i>
    <i name="e_0_energy">   -259.39248537 </i>
   </energy>
  </scstep>
  <scstep>
   <time name="diag">    8.99    8.99</time>
   <time name="diis">   52.64   52.64</time>
   <time name="orth">    1.50    1.49</time>
   <time name="total">   66.08   66.08</time>
   <energy>
    <i name="e_fr_energy">   -166.58204449 </i>
    <i name="e_wo_entrp">   -166.58204449 </i>
    <i name="e_0_energy">   -166.58204449 </i>
   </energy>
  </scstep>
  <scstep>
   <time name="diag">    9.00    9.00</time>
   <time name="diis">   56.21   56.21</time>
   <time name="orth">    1.49    1.49</time>
   <time name="total">   69.68   69.68</time>
   <energy>
    <i name="e_fr_energy">   -912.64059283 </i>
    <i name="e_wo_entrp">   -912.64059283 </i>
    <i name="e_0_energy">   -912.64059283 </i>
   </energy>
  </scstep>
  <scstep>
   <time name="diag">    8.98    8.98</time>
   <time name="diis">   57.30   57.30</time>
   <time name="orth">    1.49    1.49</time>
   <time name="total">   70.90   70.91</time>
   <energy>
    <i name="e_fr_energy">     -5.68804156 </i>
    <i name="e_wo_entrp">     -5.68804156 </i>
    <i name="e_0_energy">     -5.68804156 </i>
   </energy>
  </scstep>
  <scstep>
   <time name="diag">    9.00    8.99</time>
   <time name="diis">   53.09   53.10</time>
   <time name="orth">    1.48    1.49</time>
   <time name="total">   66.63   69.14</time>
   <energy>
    <i name="e_fr_energy">     18.82745872 </i>
    <i name="e_wo_entrp">     18.82745872 </i>
    <i name="e_0_energy">     18.82745872 </i>
   </energy>
  </scstep>
  <scstep>
   <time name="diag">    9.00    8.99</time>
   <time name="diis">   53.04   53.04</time>
   <time name="orth">    1.50    1.49</time>
   <time name="total">   66.68   66.74</time>
   <energy>
    <i name="e_fr_energy">   -930.31360701 </i>
    <i name="e_wo_entrp">   -930.31360701 </i>
    <i name="e_0_energy">   -930.31360701 </i>
   </energy>
  </scstep>
  <scstep>
   <time name="diag">    8.99    8.99</time>
   <time name="diis">   58.23   58.23</time>
   <time name="orth">    1.49    1.49</time>
   <time name="total">   71.74   72.09</time>
   <energy>
    <i name="e_fr_energy">  -1483.58988398 </i>
    <i name="e_wo_entrp">  -1483.58988398 </i>
    <i name="e_0_energy">  -1483.58988398 </i>
   </energy>
  </scstep>
  <scstep>
   <time name="diag">    9.00    9.00</time>
   <time name="diis">   57.20   57.19</time>
   <time name="orth">    1.49    1.49</time>
   <time name="total">   70.64   70.91</time>
   <energy>
    <i name="e_fr_energy">  -1017.14055100 </i>
    <i name="e_wo_entrp">  -1017.14055100 </i>
    <i name="e_0_energy">  -1017.14055100 </i>
   </energy>
  </scstep>
  <scstep>
   <time name="diag">    9.00    9.00</time>
   <time name="diis">   56.54   56.54</time>
   <time name="orth">    1.49    1.49</time>
   <time name="total">   70.18   70.18</time>
   <energy>
    <i name="e_fr_energy">    387.87730320 </i>
    <i name="e_wo_entrp">    387.87730320 </i>
    <i name="e_0_energy">    387.87730320 </i>
   </energy>
  </scstep>
  <scstep>
   <time name="diag">    9.00    9.01</time>
   <time name="diis">   55.24   55.24</time>
   <time name="orth">    1.49    1.49</time>
   <time name="total">   68.80   68.80</time>
   <energy>
    <i name="e_fr_energy">   -510.81531582 </i>
    <i name="e_wo_entrp">   -510.81531582 </i>
    <i name="e_0_energy">   -510.81531582 </i>
   </energy>
  </scstep>
  <scstep>
   <time name="diag">    9.00    9.00</time>
   <time name="diis">   52.31   52.30</time>
   <time name="orth">    1.50    1.49</time>
   <time name="total">   66.10   66.09</time>
   <energy>
    <i name="e_fr_energy">   -411.34733681 </i>
    <i name="e_wo_entrp">   -411.34733681 </i>
    <i name="e_0_energy">   -411.34733681 </i>
   </energy>
  </scstep>
  <scstep>
   <time name="diag">    8.99    8.99</time>
   <time name="diis">   59.86   59.85</time>
   <time name="orth">    1.49    1.49</time>
   <time name="total">   73.44   73.70</time>
   <energy>
    <i name="e_fr_energy">   -827.83537136 </i>
    <i name="e_wo_entrp">   -827.83537136 </i>
    <i name="e_0_energy">   -827.83537136 </i>
   </energy>
  </scstep>
  <scstep>
   <time name="diag">    9.00    9.00</time>
   <time name="diis">   56.08   56.08</time>
   <time name="orth">    1.49    1.49</time>
   <time name="total">   69.75   70.07</time>
   <energy>
    <i name="e_fr_energy">  -1034.59926380 </i>
    <i name="e_wo_entrp">  -1034.59926380 </i>
    <i name="e_0_energy">  -1034.59926380 </i>
   </energy>
  </scstep>
  <scstep>
   <time name="diag">    9.01    9.01</time>
   <time name="diis">   58.12   58.12</time>
   <time name="orth">    1.49    1.49</time>
   <time name="total">   71.56   71.57</time>
   <energy>
    <i name="e_fr_energy">  -1884.16101989 </i>
    <i name="e_wo_entrp">  -1884.16101989 </i>
    <i name="e_0_energy">  -1884.16101989 </i>
   </energy>
  </scstep>
  <scstep>
   <time name="diag">    8.99    8.99</time>
   <time name="diis">   55.87   55.87</time>
   <time name="orth">    1.50    1.49</time>
   <time name="total">   69.52   69.52</time>
   <energy>
    <i name="e_fr_energy">  -1932.44945478 </i>
    <i name="e_wo_entrp">  -1932.44945478 </i>
    <i name="e_0_energy">  -1932.44945478 </i>
   </energy>
  </scstep>
  <scstep>
   <time name="diag">    8.99    8.99</time>
   <time name="diis">   57.38   57.38</time>
   <time name="orth">    1.49    1.49</time>
   <time name="total">   70.82   70.82</time>
   <energy>
    <i name="e_fr_energy">  -2397.55993161 </i>
    <i name="e_wo_entrp">  -2397.55993161 </i>
    <i name="e_0_energy">  -2397.55993161 </i>
   </energy>
  </scstep>
  <scstep>
   <time name="diag">    9.00    9.00</time>
   <time name="diis">   54.48   54.48</time>
   <time name="orth">    1.49    1.49</time>
   <time name="total">   68.08   68.08</time>
   <energy>
    <i name="e_fr_energy">  -2422.56817574 </i>
    <i name="e_wo_entrp">  -2422.56817574 </i>
    <i name="e_0_energy">  -2422.56817574 </i>
   </energy>
  </scstep>
  <scstep>
   <time name="diag">    8.99    8.99</time>
   <time name="diis">   57.16   57.16</time>
   <time name="orth">    1.49    1.49</time>
   <time name="total">   70.71   70.71</time>
   <energy>
    <i name="e_fr_energy">  -1622.36676124 </i>
    <i name="e_wo_entrp">  -1622.36676124 </i>
    <i name="e_0_energy">  -1622.36676124 </i>
   </energy>
  </scstep>
  <scstep>
   <time name="diag">    8.99    8.99</time>
   <time name="diis">   57.08   57.09</time>
   <time name="orth">    1.49    1.49</time>
   <time name="total">   70.68   70.68</time>
   <energy>
    <i name="e_fr_energy">  -1565.89941006 </i>
    <i name="e_wo_entrp">  -1565.89941006 </i>
    <i name="e_0_energy">  -1565.89941006 </i>
   </energy>
  </scstep>
  <scstep>
   <time name="diag">    9.01    9.01</time>
   <time name="diis">   56.77   56.77</time>
   <time name="orth">    1.49    1.49</time>
   <time name="total">   70.30   70.31</time>
   <energy>
    <i name="e_fr_energy">  -1085.15826260 </i>
    <i name="e_wo_entrp">  -1085.15826260 </i>
    <i name="e_0_energy">  -1085.15826260 </i>
   </energy>
  </scstep>
  <scstep>
   <time name="diag">    9.00    8.99</time>
   <time name="diis">   55.52   55.52</time>
   <time name="orth">    1.49    1.49</time>
   <time name="total">   69.02   69.02</time>
   <energy>
    <i name="e_fr_energy">   -311.39653467 </i>
    <i name="e_wo_entrp">   -311.39653467 </i>
    <i name="e_0_energy">   -311.39653467 </i>
   </energy>
  </scstep>
  <scstep>
   <time name="diag">    9.00    9.00</time>
   <time name="diis">   55.10   55.09</time>
   <time name="orth">    1.49    1.49</time>
   <time name="total">   68.66   68.65</time>
   <energy>
    <i name="e_fr_energy">   -393.14164622 </i>
    <i name="e_wo_entrp">   -393.14164622 </i>
    <i name="e_0_energy">   -393.14164622 </i>
   </energy>
  </scstep>
  <scstep>
   <time name="diag">    8.98    8.99</time>
   <time name="diis">   56.41   56.41</time>
   <time name="orth">    1.49    1.49</time>
   <time name="total">   69.91   70.37</time>
   <energy>
    <i name="e_fr_energy">  -1075.47360687 </i>
    <i name="e_wo_entrp">  -1075.47360687 </i>
    <i name="e_0_energy">  -1075.47360687 </i>
   </energy>
  </scstep>
  <scstep>
   <time name="diag">    9.00    9.01</time>
   <time name="diis">   56.40   56.39</time>
   <time name="orth">    1.49    1.49</time>
   <time name="total">   69.94   73.59</time>
   <energy>
    <i name="e_fr_energy">  -2280.71658401 </i>
    <i name="e_wo_entrp">  -2280.71658401 </i>
    <i name="e_0_energy">  -2280.71658401 </i>
   </energy>
  </scstep>
  <scstep>
   <time name="diag">    8.98    8.99</time>
   <time name="diis">   56.90   56.90</time>
   <time name="orth">    1.50    1.49</time>
   <time name="total">   70.40   70.45</time>
   <energy>
    <i name="e_fr_energy">  -2292.72281745 </i>
    <i name="e_wo_entrp">  -2292.72281745 </i>
    <i name="e_0_energy">  -2292.72281745 </i>
   </energy>
  </scstep>
  <scstep>
   <time name="diag">    8.99    8.99</time>
   <time name="diis">   56.70   56.71</time>
   <time name="orth">    1.50    1.49</time>
   <time name="total">   70.19   70.19</time>
   <energy>
    <i name="e_fr_energy">  -1674.81687571 </i>
    <i name="e_wo_entrp">  -1674.81687571 </i>
    <i name="e_0_energy">  -1674.81687571 </i>
   </energy>
  </scstep>
  <scstep>
   <time name="diag">    9.00    9.00</time>
   <time name="diis">   56.20   56.19</time>
   <time name="orth">    1.49    1.49</time>
   <time name="total">   69.66   69.66</time>
   <energy>
    <i name="e_fr_energy">  -1079.25890952 </i>
    <i name="e_wo_entrp">  -1079.25890952 </i>
    <i name="e_0_energy">  -1079.25890952 </i>
   </energy>
  </scstep>
  <scstep>
   <time name="diag">    9.00    9.00</time>
   <time name="diis">   55.39   55.39</time>
   <time name="orth">    1.50    1.49</time>
   <time name="total">   68.89   68.89</time>
   <energy>
    <i name="e_fr_energy">   -979.13685444 </i>
    <i name="e_wo_entrp">   -979.13685444 </i>
    <i name="e_0_energy">   -979.13685444 </i>
   </energy>
  </scstep>
  <scstep>
   <time name="diag">    9.00    9.00</time>
   <time name="diis">   56.52   56.52</time>
   <time name="orth">    1.49    1.49</time>
   <time name="total">   70.16   70.16</time>
   <energy>
    <i name="e_fr_energy">   -380.52021318 </i>
    <i name="e_wo_entrp">   -380.52021318 </i>
    <i name="e_0_energy">   -380.52021318 </i>
   </energy>
  </scstep>
  <scstep>
   <time name="diag">    8.98    8.99</time>
   <time name="diis">   54.63   54.63</time>
   <time name="orth">    1.49    1.49</time>
   <time name="total">   68.07   68.08</time>
   <energy>
    <i name="e_fr_energy">  -1301.16291693 </i>
    <i name="e_wo_entrp">  -1301.16291693 </i>
    <i name="e_0_energy">  -1301.16291693 </i>
   </energy>
  </scstep>
  <scstep>
   <time name="diag">    9.00    9.00</time>
   <time name="diis">   55.01   55.01</time>
   <time name="orth">    1.49    1.49</time>
   <time name="total">   68.64   69.73</time>
   <energy>
    <i name="e_fr_energy">  -1660.26583927 </i>
    <i name="e_wo_entrp">  -1660.26583927 </i>
    <i name="e_0_energy">  -1660.26583927 </i>
   </energy>
  </scstep>
  <scstep>
   <time name="diag">    8.98    8.99</time>
   <time name="diis">   57.45   57.46</time>
   <time name="orth">    1.49    1.49</time>
   <time name="total">   70.87   74.63</time>
   <energy>
    <i name="e_fr_energy">  -2323.47937565 </i>
    <i name="e_wo_entrp">  -2323.47937565 </i>
    <i name="e_0_energy">  -2323.47937565 </i>
   </energy>
  </scstep>
  <scstep>
   <time name="diag">    8.99    8.99</time>
   <time name="diis">   56.05   56.04</time>
   <time name="orth">    1.49    1.49</time>
   <time name="total">   69.72   70.20</time>
   <energy>
    <i name="e_fr_energy">  -1605.97445899 </i>
    <i name="e_wo_entrp">  -1605.97445899 </i>
    <i name="e_0_energy">  -1605.97445899 </i>
   </energy>
  </scstep>
  <scstep>
   <time name="diag">    8.99    8.99</time>
   <time name="diis">   57.85   57.86</time>
   <time name="orth">    1.49    1.49</time>
   <time name="total">   71.34   71.35</time>
   <energy>
    <i name="e_fr_energy">  -1054.61868381 </i>
    <i name="e_wo_entrp">  -1054.61868381 </i>
    <i name="e_0_energy">  -1054.61868381 </i>
   </energy>
  </scstep>
  <scstep>
   <time name="diag">    8.99    8.99</time>
   <time name="diis">   55.91   55.92</time>
   <time name="orth">    1.49    1.49</time>
   <time name="total">   69.54   69.54</time>
   <energy>
    <i name="e_fr_energy">  -1207.01933272 </i>
    <i name="e_wo_entrp">  -1207.01933272 </i>
    <i name="e_0_energy">  -1207.01933272 </i>
   </energy>
  </scstep>
  <scstep>
   <time name="diag">    9.00    9.00</time>
   <time name="diis">   57.83   57.83</time>
   <time name="orth">    1.49    1.49</time>
   <time name="total">   71.31   71.32</time>
   <energy>
    <i name="e_fr_energy">  -1708.61131081 </i>
    <i name="e_wo_entrp">  -1708.61131081 </i>
    <i name="e_0_energy">  -1708.61131081 </i>
   </energy>
  </scstep>
  <scstep>
   <time name="diag">    8.99    8.99</time>
   <time name="diis">   56.52   56.52</time>
   <time name="orth">    1.49    1.49</time>
   <time name="total">   70.14   70.14</time>
   <energy>
    <i name="e_fr_energy">  -1311.82310805 </i>
    <i name="e_wo_entrp">  -1311.82310805 </i>
    <i name="e_0_energy">  -1311.82310805 </i>
   </energy>
  </scstep>
  <scstep>
   <time name="diag">    8.99    8.99</time>
   <time name="diis">   57.68   57.68</time>
   <time name="orth">    1.49    1.49</time>
   <time name="total">   71.17   71.29</time>
   <energy>
    <i name="e_fr_energy">   -651.30036151 </i>
    <i name="e_wo_entrp">   -651.30036151 </i>
    <i name="e_0_energy">   -651.30036151 </i>
   </energy>
  </scstep>
  <scstep>
   <time name="diag">    8.99    8.99</time>
   <time name="diis">   56.46   56.47</time>
   <time name="orth">    1.49    1.49</time>
   <time name="total">   70.01   70.25</time>
   <energy>
    <i name="e_fr_energy">  -1303.61012984 </i>
    <i name="e_wo_entrp">  -1303.61012984 </i>
    <i name="e_0_energy">  -1303.61012984 </i>
   </energy>
  </scstep>
  <scstep>
   <time name="diag">    8.99    8.99</time>
   <time name="diis">   56.32   56.31</time>
   <time name="orth">    1.49    1.49</time>
   <time name="total">   69.76   72.54</time>
   <energy>
    <i name="e_fr_energy">  -1216.98920349 </i>
    <i name="e_wo_entrp">  -1216.98920349 </i>
    <i name="e_0_energy">  -1216.98920349 </i>
   </energy>
  </scstep>
  <scstep>
   <time name="diag">    9.00    9.00</time>
   <time name="diis">   55.85   55.85</time>
   <time name="orth">    1.49    1.49</time>
   <time name="total">   69.36   69.35</time>
   <energy>
    <i name="e_fr_energy">  -1579.76348943 </i>
    <i name="e_wo_entrp">  -1579.76348943 </i>
    <i name="e_0_energy">  -1579.76348943 </i>
   </energy>
  </scstep>
  <scstep>
   <time name="diag">    8.98    8.99</time>
   <time name="diis">   56.28   56.28</time>
   <time name="orth">    1.49    1.49</time>
   <time name="total">   69.73   69.73</time>
   <energy>
    <i name="e_fr_energy">    -96.99535379 </i>
    <i name="e_wo_entrp">    -96.99535379 </i>
    <i name="e_0_energy">    -96.99535379 </i>
   </energy>
  </scstep>
  <scstep>
   <time name="diag">    9.00    8.99</time>
   <time name="diis">   55.92   55.92</time>
   <time name="orth">    1.49    1.49</time>
   <time name="total">   69.40   69.40</time>
   <energy>
    <i name="e_fr_energy">   -569.41139568 </i>
    <i name="e_wo_entrp">   -569.41139568 </i>
    <i name="e_0_energy">   -569.41139568 </i>
   </energy>
  </scstep>
  <scstep>
   <time name="diag">    9.00    9.00</time>
   <time name="diis">   56.07   56.08</time>
   <time name="orth">    1.49    1.49</time>
   <time name="total">   69.71   69.72</time>
   <energy>
    <i name="e_fr_energy">  -1018.65729188 </i>
    <i name="e_wo_entrp">  -1018.65729188 </i>
    <i name="e_0_energy">  -1018.65729188 </i>
   </energy>
  </scstep>
  <scstep>
   <time name="diag">    9.01    9.01</time>
   <time name="diis">   57.95   57.96</time>
   <time name="orth">    1.49    1.49</time>
   <time name="total">   71.44   71.57</time>
   <energy>
    <i name="e_fr_energy">  -1015.28231669 </i>
    <i name="e_wo_entrp">  -1015.28231669 </i>
    <i name="e_0_energy">  -1015.28231669 </i>
   </energy>
  </scstep>
  <scstep>
   <time name="diag">    9.00    9.00</time>
   <time name="diis">   56.20   56.20</time>
   <time name="orth">    1.49    1.49</time>
   <time name="total">   69.65   69.65</time>
   <energy>
    <i name="e_fr_energy">  -1523.38306819 </i>
    <i name="e_wo_entrp">  -1523.38306819 </i>
    <i name="e_0_energy">  -1523.38306819 </i>
   </energy>
  </scstep>
  <scstep>
   <time name="diag">    8.99    8.99</time>
   <time name="diis">   55.61   55.61</time>
   <time name="orth">    1.49    1.49</time>
   <time name="total">   69.26   69.27</time>
   <energy>
    <i name="e_fr_energy">   -521.94682917 </i>
    <i name="e_wo_entrp">   -521.94682917 </i>
    <i name="e_0_energy">   -521.94682917 </i>
   </energy>
  </scstep>
  <scstep>
   <time name="diag">    8.99    8.99</time>
   <time name="diis">   53.02   53.02</time>
   <time name="orth">    1.49    1.49</time>
   <time name="total">   66.45   66.45</time>
   <energy>
    <i name="e_fr_energy">   -988.99573774 </i>
    <i name="e_wo_entrp">   -988.99573774 </i>
    <i name="e_0_energy">   -988.99573774 </i>
   </energy>
  </scstep>
  <scstep>
   <time name="diag">    8.98    8.98</time>
   <time name="diis">   54.93   54.93</time>
   <time name="orth">    1.49    1.49</time>
   <time name="total">   68.44   68.44</time>
   <energy>
    <i name="e_fr_energy">  -1087.91377816 </i>
    <i name="e_wo_entrp">  -1087.91377816 </i>
    <i name="e_0_energy">  -1087.91377816 </i>
   </energy>
  </scstep>
  <scstep>
   <time name="diag">    8.99    8.99</time>
   <time name="diis">   53.07   53.07</time>
   <time name="orth">    1.49    1.49</time>
   <time name="total">   66.50   66.51</time>
   <energy>
    <i name="e_fr_energy">  -2801.71580244 </i>
    <i name="e_wo_entrp">  -2801.71580244 </i>
    <i name="e_0_energy">  -2801.71580244 </i>
   </energy>
  </scstep>
  <scstep>
   <time name="diag">    8.98    8.98</time>
   <time name="diis">   55.85   55.86</time>
   <time name="orth">    1.49    1.49</time>
   <time name="total">   69.66   70.02</time>
   <energy>
    <i name="e_fr_energy">  -1397.13413459 </i>
    <i name="e_wo_entrp">  -1397.13413459 </i>
    <i name="e_0_energy">  -1397.13413459 </i>
   </energy>
  </scstep>
  <scstep>
   <time name="diag">    9.00    9.00</time>
   <time name="diis">   59.67   59.66</time>
   <time name="orth">    1.49    1.49</time>
   <time name="total">   73.28   73.28</time>
   <energy>
    <i name="e_fr_energy">    114.43697298 </i>
    <i name="e_wo_entrp">    114.43697298 </i>
    <i name="e_0_energy">    114.43697298 </i>
   </energy>
  </scstep>
  <scstep>
   <time name="diag">    8.98    8.98</time>
   <time name="diis">   57.92   57.93</time>
   <time name="orth">    1.49    1.49</time>
   <time name="total">   71.47   71.48</time>
   <energy>
    <i name="e_fr_energy">   -664.52723940 </i>
    <i name="e_wo_entrp">   -664.52723940 </i>
    <i name="e_0_energy">   -664.52723940 </i>
   </energy>
  </scstep>
  <scstep>
   <time name="diag">    8.99    8.99</time>
   <time name="diis">   56.71   56.71</time>
   <time name="orth">    1.49    1.49</time>
   <time name="total">   70.16   70.55</time>
   <energy>
    <i name="e_fr_energy">  -1646.09391998 </i>
    <i name="e_wo_entrp">  -1646.09391998 </i>
    <i name="e_0_energy">  -1646.09391998 </i>
   </energy>
  </scstep>
  <scstep>
   <time name="diag">    9.00    9.00</time>
   <time name="diis">   55.90   55.89</time>
   <time name="orth">    1.49    1.49</time>
   <time name="total">   69.56   69.56</time>
   <energy>
    <i name="e_fr_energy">   -620.45762759 </i>
    <i name="e_wo_entrp">   -620.45762759 </i>
    <i name="e_0_energy">   -620.45762759 </i>
   </energy>
  </scstep>
  <scstep>
   <time name="diag">    8.98    8.99</time>
   <time name="diis">   58.50   58.49</time>
   <time name="orth">    1.49    1.49</time>
   <time name="total">   72.05   72.06</time>
   <energy>
    <i name="e_fr_energy">  -1783.82215512 </i>
    <i name="e_wo_entrp">  -1783.82215512 </i>
    <i name="e_0_energy">  -1783.82215512 </i>
   </energy>
  </scstep>
  <scstep>
   <time name="diag">    8.99    8.99</time>
   <time name="diis">   56.88   56.89</time>
   <time name="orth">    1.49    1.49</time>
   <time name="total">   70.54   70.54</time>
   <energy>
    <i name="e_fr_energy">   -878.33561934 </i>
    <i name="e_wo_entrp">   -878.33561934 </i>
    <i name="e_0_energy">   -878.33561934 </i>
   </energy>
  </scstep>
  <scstep>
   <time name="diag">    8.99    8.99</time>
   <time name="diis">   53.86   53.86</time>
   <time name="orth">    1.49    1.49</time>
   <time name="total">   67.30   67.34</time>
   <energy>
    <i name="e_fr_energy">  -1503.49844612 </i>
    <i name="e_wo_entrp">  -1503.49844612 </i>
    <i name="e_0_energy">  -1503.49844612 </i>
   </energy>
  </scstep>
  <scstep>
   <time name="diag">    8.99    8.99</time>
   <time name="diis">   55.51   55.52</time>
   <time name="orth">    1.49    1.49</time>
   <time name="total">   69.14   69.26</time>
   <energy>
    <i name="e_fr_energy">  -2441.70585486 </i>
    <i name="e_wo_entrp">  -2441.70585486 </i>
    <i name="e_0_energy">  -2441.70585486 </i>
   </energy>
  </scstep>
  <scstep>
   <time name="diag">    9.01    9.01</time>
   <time name="diis">   57.89   57.90</time>
   <time name="orth">    1.49    1.49</time>
   <time name="total">   71.34   71.35</time>
   <energy>
    <i name="e_fr_energy">  -2580.72570778 </i>
    <i name="e_wo_entrp">  -2580.72570778 </i>
    <i name="e_0_energy">  -2580.72570778 </i>
   </energy>
  </scstep>
  <scstep>
   <time name="diag">    9.00    8.99</time>
   <time name="diis">   55.88   55.88</time>
   <time name="orth">    1.49    1.49</time>
   <time name="total">   69.50   69.51</time>
   <energy>
    <i name="e_fr_energy">  -1598.78614052 </i>
    <i name="e_wo_entrp">  -1598.78614052 </i>
    <i name="e_0_energy">  -1598.78614052 </i>
   </energy>
  </scstep>
  <scstep>
   <time name="diag">    8.99    8.99</time>
   <time name="diis">   57.56   57.55</time>
   <time name="orth">    1.48    1.49</time>
   <time name="total">   71.05   71.05</time>
   <energy>
    <i name="e_fr_energy">   -115.14218318 </i>
    <i name="e_wo_entrp">   -115.14218318 </i>
    <i name="e_0_energy">   -115.14218318 </i>
   </energy>
  </scstep>
  <scstep>
   <time name="diag">    8.98    8.98</time>
   <time name="diis">   48.99   48.99</time>
   <time name="orth">    1.49    1.49</time>
   <time name="total">   62.48   62.48</time>
   <energy>
    <i name="e_fr_energy">   -441.62267272 </i>
    <i name="e_wo_entrp">   -441.62267272 </i>
    <i name="e_0_energy">   -441.62267272 </i>
   </energy>
  </scstep>
  <scstep>
   <time name="diag">    8.99    8.99</time>
   <time name="diis">   56.58   56.58</time>
   <time name="orth">    1.50    1.49</time>
   <time name="total">   67.73   67.74</time>
   <energy>
    <i name="alphaZ">   3270.50658966 </i>
    <i name="ewald"> -38472.38967208 </i>
    <i name="hartreedc"> -14896.62434822 </i>
    <i name="XCdc">   1500.99385797 </i>
    <i name="pawpsdc">  40122.38053629 </i>
    <i name="pawaedc"> -42234.18882303 </i>
    <i name="eentropy">      0.00000000 </i>
    <i name="bandstr">  -6028.29081587 </i>
    <i name="atom">  55184.31919969 </i>
    <i name="e_fr_energy">  -1553.29347559 </i>
    <i name="e_wo_entrp">  -1553.29347559 </i>
    <i name="e_0_energy">  -1553.29347559 </i>
   </energy>
  </scstep>
  <v type="logical" name="LVDW"> F  </v>
  <structure>
   <crystal>
    <varray name="basis" >
     <v>       3.76700000       0.00000000       0.00000000 </v>
     <v>       0.00000000      10.58100000       0.00000000 </v>
     <v>       0.00000000       0.00000000      12.10800000 </v>
    </varray>
    <i name="volume">    482.60825572 </i>
    <varray name="rec_basis" >
     <v>       0.26546323       0.00000000       0.00000000 </v>
     <v>       0.00000000       0.09450903       0.00000000 </v>
     <v>       0.00000000       0.00000000       0.08259002 </v>
    </varray>
   </crystal>
   <varray name="positions" >
    <v>       0.25000000       0.60500000       0.39400000 </v>
    <v>       0.75000000       0.39500000       0.60600000 </v>
    <v>       0.75000000       0.10500000       0.10600000 </v>
    <v>       0.25000000       0.89500000       0.89400000 </v>
    <v>       0.75000000       0.77220000       0.63110000 </v>
    <v>       0.25000000       0.22780000       0.36890000 </v>
    <v>       0.25000000       0.42160000       0.11090000 </v>
    <v>       0.75000000       0.57840000       0.88910000 </v>
    <v>       0.75000000       0.92160000       0.38910000 </v>
    <v>       0.25000000       0.07840000       0.61090000 </v>
    <v>       0.25000000       0.27220000       0.86890000 </v>
    <v>       0.75000000       0.72780000       0.13110000 </v>
    <v>       0.25000000       0.40410000       0.49010000 </v>
    <v>       0.75000000       0.72090000       0.32490000 </v>
    <v>       0.75000000       0.77910000       0.82490000 </v>
    <v>       0.25000000       0.27910000       0.67510000 </v>
    <v>       0.25000000       0.62090000       0.19790000 </v>
    <v>       0.75000000       0.37910000       0.80210000 </v>
    <v>       0.75000000       0.12090000       0.30210000 </v>
    <v>       0.25000000       0.87910000       0.69790000 </v>
    <v>       0.25000000       0.03370000       0.43390000 </v>
    <v>       0.75000000       0.96630000       0.56610000 </v>
    <v>       0.75000000       0.53370000       0.06610000 </v>
    <v>       0.25000000       0.46630000       0.93390000 </v>
    <v>       0.75000000       0.90410000       0.00990000 </v>
    <v>       0.25000000       0.09590000       0.99010000 </v>
    <v>       0.25000000       0.70440000       0.98810000 </v>
    <v>       0.75000000       0.29560000       0.01190000 </v>
    <v>       0.75000000       0.20440000       0.51190000 </v>
    <v>       0.25000000       0.79560000       0.48810000 </v>
    <v>       0.25000000       0.22090000       0.17510000 </v>
    <v>       0.75000000       0.59590000       0.50990000 </v>
    <v>       0.25000000       0.58165000       0.70409000 </v>
    <v>       0.75000000       0.41835000       0.29591000 </v>
    <v>       0.75000000       0.08165000       0.79591000 </v>
    <v>       0.25000000       0.91835000       0.20409000 </v>
   </varray>
  </structure>
  <varray name="forces" >
   <v>       0.00000000      -2.34838986      -5.45626716 </v>
   <v>       0.00000000       2.34838986       5.45626716 </v>
   <v>       0.00000000      -2.34838986       5.45626716 </v>
   <v>       0.00000000       2.34838986      -5.45626716 </v>
   <v>       0.00000000      -2.87528193       2.68810373 </v>
   <v>       0.00000000       2.87528193      -2.68810373 </v>
   <v>       0.00000000      -1.17099098       1.74606756 </v>
   <v>       0.00000000       1.17099098      -1.74606756 </v>
   <v>       0.00000000      -1.17099098      -1.74606756 </v>
   <v>       0.00000000       1.17099098       1.74606756 </v>
   <v>       0.00000000      -2.87528193      -2.68810373 </v>
   <v>       0.00000000       2.87528193       2.68810373 </v>
   <v>       0.00000000      10.15162538      -0.71918693 </v>
   <v>       0.00000000      -0.64103390       0.69588656 </v>
   <v>       0.00000000       0.64103390       0.69588656 </v>
   <v>       0.00000000       0.64103390      -0.69588656 </v>
   <v>       0.00000000      -0.29646212       0.31241244 </v>
   <v>       0.00000000       0.29646212      -0.31241244 </v>
   <v>       0.00000000      -0.29646212      -0.31241244 </v>
   <v>       0.00000000       0.29646212       0.31241244 </v>
   <v>       0.00000000      -2.76757265       1.29628157 </v>
   <v>       0.00000000       2.76757265      -1.29628157 </v>
   <v>       0.00000000      -2.76757265      -1.29628157 </v>
   <v>       0.00000000       2.76757265       1.29628157 </v>
   <v>       0.00000000      10.15162538       0.71918693 </v>
   <v>       0.00000000     -10.15162538      -0.71918693 </v>
   <v>       0.00000000      -7.08926667       0.39318430 </v>
   <v>       0.00000000       7.08926667      -0.39318430 </v>
   <v>       0.00000000      -7.08926667      -0.39318430 </v>
   <v>       0.00000000       7.08926667       0.39318430 </v>
   <v>       0.00000000      -0.64103390      -0.69588656 </v>
   <v>       0.00000000     -10.15162538       0.71918693 </v>
   <v>       0.00000000      -1.33583652      -2.75204386 </v>
   <v>       0.00000000       1.33583652       2.75204386 </v>
   <v>       0.00000000      -1.33583652       2.75204386 </v>
   <v>       0.00000000       1.33583652      -2.75204386 </v>
  </varray>
  <varray name="stress" >
   <v>   13542.44235996       0.00000000       0.00000000 </v>
   <v>       0.00000000    9761.05433464       0.00000000 </v>
   <v>       0.00000000       0.00000000   12723.31707237 </v>
  </varray>
  <energy>
   <i name="e_fr_energy">  -1553.29347559 </i>
   <i name="e_wo_entrp">  -1553.29347559 </i>
   <i name="e_0_energy">      0.00000000 </i>
  </energy>
  <time name="totalsc"> 7048.75 7079.90</time>
  <eigenvalues>
   <array>
    <dimension dim="1">band</dimension>
    <dimension dim="2">kpoint</dimension>
    <dimension dim="3">spin</dimension>
    <field>eigene</field>
    <field>occ</field>
    <set>
     <set comment="spin 1">
      <set comment="kpoint 1">
       <r>  -68.5514    1.0000 </r>
       <r>  -68.5522    1.0000 </r>
       <r>  -68.5728    1.0000 </r>
       <r>  -68.5659    1.0000 </r>
       <r>  -68.5654    1.0000 </r>
       <r>  -68.5691    1.0000 </r>
       <r>  -68.5333    1.0000 </r>
       <r>  -68.5303    1.0000 </r>
       <r>  -68.3869    1.0000 </r>
       <r>  -68.3911    1.0000 </r>
       <r>  -68.3686    1.0000 </r>
       <r>  -68.3710    1.0000 </r>
       <r>  -53.3790    1.0000 </r>
       <r>  -53.3794    1.0000 </r>
       <r>  -53.3760    1.0000 </r>
       <r>  -53.3785    1.0000 </r>
       <r>  -53.3613    1.0000 </r>
       <r>  -53.3615    1.0000 </r>
       <r>  -53.3032    1.0000 </r>
       <r>  -53.3026    1.0000 </r>
       <r>  -53.2646    1.0000 </r>
       <r>  -53.2644    1.0000 </r>
       <r>  -53.2399    1.0000 </r>
       <r>  -53.2391    1.0000 </r>
       <r>  -45.4552    1.0000 </r>
       <r>  -45.4551    1.0000 </r>
       <r>  -45.4551    1.0000 </r>
       <r>  -45.4550    1.0000 </r>
       <r>  -45.1596    1.0000 </r>
       <r>  -45.1596    1.0000 </r>
       <r>  -45.1595    1.0000 </r>
       <r>  -45.1593    1.0000 </r>
       <r>  -45.1314    1.0000 </r>
       <r>  -45.1313    1.0000 </r>
       <r>  -45.1313    1.0000 </r>
       <r>  -45.1313    1.0000 </r>
       <r>  -36.2500    1.0000 </r>
       <r>  -36.2479    1.0000 </r>
       <r>  -36.2488    1.0000 </r>
       <r>  -36.2431    1.0000 </r>
       <r>  -36.2454    1.0000 </r>
       <r>  -36.2385    1.0000 </r>
       <r>  -36.2408    1.0000 </r>
       <r>  -36.2383    1.0000 </r>
       <r>  -36.2368    1.0000 </r>
       <r>  -36.2365    1.0000 </r>
       <r>  -36.2366    1.0000 </r>
       <r>  -36.2385    1.0000 </r>
       <r>  -28.0074    1.0000 </r>
       <r>  -28.0070    1.0000 </r>
       <r>  -28.0057    1.0000 </r>
       <r>  -28.0049    1.0000 </r>
       <r>  -26.2906    1.0000 </r>
       <r>  -26.2913    1.0000 </r>
       <r>  -26.2911    1.0000 </r>
       <r>  -26.2895    1.0000 </r>
       <r>  -26.2207    1.0000 </r>
       <r>  -26.2165    1.0000 </r>
       <r>  -26.2171    1.0000 </r>
       <r>  -26.2165    1.0000 </r>
       <r>  -26.1112    1.0000 </r>
       <r>  -26.1105    1.0000 </r>
       <r>  -26.1103    1.0000 </r>
       <r>  -26.1125    1.0000 </r>
       <r>  -13.5622    1.0000 </r>
       <r>  -13.5455    1.0000 </r>
       <r>  -13.5071    1.0000 </r>
       <r>  -13.4498    1.0000 </r>
       <r>  -14.0318    1.0000 </r>
       <r>  -13.6334    1.0000 </r>
       <r>  -13.3704    1.0000 </r>
       <r>  -10.8300    1.0000 </r>
       <r>  -10.0976    1.0000 </r>
       <r>  -13.4406    1.0000 </r>
       <r>  -13.4112    1.0000 </r>
       <r>  -10.2394    1.0000 </r>
       <r>   -9.9021    1.0000 </r>
       <r>   -9.2761    1.0000 </r>
       <r>  -10.0826    1.0000 </r>
       <r>   -7.9181    1.0000 </r>
       <r>   -8.0778    1.0000 </r>
       <r>   -9.1127    1.0000 </r>
       <r>   -8.6176    1.0000 </r>
       <r>   -8.5450    1.0000 </r>
       <r>   -9.6034    1.0000 </r>
       <r>   -9.6851    1.0000 </r>
       <r>  -12.1255    1.0000 </r>
       <r>  -12.4707    1.0000 </r>
       <r>  -11.1591    1.0000 </r>
       <r>  -10.9675    1.0000 </r>
       <r>  -11.2052    1.0000 </r>
       <r>  -10.3708    1.0000 </r>
       <r>  -10.1699    1.0000 </r>
       <r>  -11.3891    1.0000 </r>
       <r>   -6.1542    1.0000 </r>
       <r>   -4.4540    1.0000 </r>
       <r>   -8.7509    1.0000 </r>
       <r>   -8.0638    1.0000 </r>
       <r>   -7.9511    1.0000 </r>
       <r>   -4.7135    1.0000 </r>
       <r>   -6.1545    1.0000 </r>
       <r>   -5.6640    1.0000 </r>
       <r>   -5.5470    1.0000 </r>
       <r>   -6.9620    1.0000 </r>
       <r>   -5.7698    1.0000 </r>
       <r>   -7.0991    1.0000 </r>
       <r>   -4.7014    1.0000 </r>
       <r>   -6.6196    1.0000 </r>
       <r>   -1.4419    1.0000 </r>
       <r>   -1.9049    1.0000 </r>
       <r>   -1.8149    1.0000 </r>
       <r>   -2.0350    1.0000 </r>
       <r>   -1.6371    1.0000 </r>
       <r>   -1.2060    1.0000 </r>
       <r>   -2.0183    1.0000 </r>
       <r>   -1.4071    1.0000 </r>
       <r>   -1.9511    1.0000 </r>
       <r>   -2.2634    1.0000 </r>
       <r>   -1.6077    1.0000 </r>
       <r>   -1.1603    1.0000 </r>
       <r>   -1.7132    1.0000 </r>
       <r>   -1.5360    1.0000 </r>
       <r>   -1.8853    1.0000 </r>
       <r>   -1.3537    1.0000 </r>
       <r>   -0.9299    1.0000 </r>
       <r>   -0.6389    1.0000 </r>
       <r>   -0.8521    1.0000 </r>
       <r>   -1.5196    1.0000 </r>
       <r>   -0.9573    1.0000 </r>
       <r>   -1.4519    1.0000 </r>
       <r>   -0.2772    1.0000 </r>
       <r>    0.7379    1.0000 </r>
       <r>    0.0406    1.0000 </r>
       <r>   -0.1013    1.0000 </r>
       <r>   -0.6775    1.0000 </r>
       <r>    1.0159    1.0000 </r>
       <r>    0.4020    1.0000 </r>
       <r>    1.0311    1.0000 </r>
       <r>    1.2162    1.0000 </r>
       <r>    1.3511    1.0000 </r>
       <r>    1.0881    1.0000 </r>
       <r>    1.6599    1.0000 </r>
       <r>    1.8410    1.0000 </r>
       <r>    0.6702    1.0000 </r>
       <r>    1.8815    1.0000 </r>
       <r>    3.2884    1.0000 </r>
       <r>    2.9195    1.0000 </r>
       <r>    3.9185    1.0000 </r>
       <r>    4.1959    1.0000 </r>
       <r>    3.8482    1.0000 </r>
       <r>    4.4209    1.0000 </r>
       <r>    4.6627    1.0000 </r>
       <r>    4.6485    1.0000 </r>
       <r>    4.5164    1.0000 </r>
       <r>    4.5654    1.0000 </r>
       <r>    4.8541    1.0000 </r>
       <r>    5.0486    1.0000 </r>
       <r>    4.2200    1.0000 </r>
       <r>    4.9425    1.0000 </r>
       <r>    4.6479    1.0000 </r>
       <r>    5.4821    1.0000 </r>
       <r>    5.5113    1.0000 </r>
       <r>    4.8534    1.0000 </r>
       <r>    5.6268    1.0000 </r>
       <r>    5.6709    1.0000 </r>
       <r>    5.6294    1.0000 </r>
       <r>    5.8102    1.0000 </r>
       <r>    5.6163    1.0000 </r>
       <r>    5.7927    1.0000 </r>
       <r>    6.0965    1.0000 </r>
       <r>    5.9952    1.0000 </r>
       <r>    6.3602    1.0000 </r>
       <r>    6.4820    1.0000 </r>
       <r>    6.3155    1.0000 </r>
       <r>    6.9000    1.0000 </r>
       <r>    7.0760    1.0000 </r>
       <r>    7.0193    1.0000 </r>
       <r>    6.8872    1.0000 </r>
       <r>    7.0742    1.0000 </r>
       <r>    7.1881    1.0000 </r>
       <r>    7.4138    1.0000 </r>
       <r>    8.2255    1.0000 </r>
       <r>    8.0457    1.0000 </r>
       <r>    7.5577    1.0000 </r>
       <r>    8.3557    1.0000 </r>
       <r>    8.4734    1.0000 </r>
       <r>    8.4980    1.0000 </r>
       <r>    9.0729    1.0388 </r>
       <r>    8.7298    1.0638 </r>
       <r>    8.9366    1.0618 </r>
       <r>    9.4521    0.0000 </r>
       <r>    9.3438    0.0000 </r>
       <r>   10.1043    0.0000 </r>
       <r>    9.9146    0.0000 </r>
       <r>   10.2882    0.0000 </r>
       <r>    9.2055    1.0000 </r>
       <r>   10.3100    0.0000 </r>
       <r>    8.0518    1.0399 </r>
       <r>    7.9731    1.0000 </r>
       <r>    8.3493    1.0492 </r>
       <r>   10.7773    0.0000 </r>
       <r>   10.9932    0.0000 </r>
       <r>    8.9493    0.7081 </r>
       <r>   11.0297    0.0000 </r>
       <r>    9.1690    0.5125 </r>
       <r>    9.0013    0.6221 </r>
       <r>   11.6402    0.0000 </r>
       <r>    9.7842    0.0000 </r>
       <r>    9.6119    0.0073 </r>
       <r>    8.8503    0.8331 </r>
       <r>   10.0540   -0.0066 </r>
       <r>   10.8179    0.0000 </r>
       <r>   10.2721   -0.0087 </r>
       <r>    9.3261   -0.0318 </r>
       <r>    9.4703    0.0000 </r>
       <r>   10.1209    0.0000 </r>
       <r>    9.7887    0.0000 </r>
       <r>   10.1086    0.0000 </r>
       <r>    9.6343    0.0000 </r>
       <r>    9.9003    0.0000 </r>
       <r>    9.6882    0.0000 </r>
       <r>   10.6364    0.0000 </r>
       <r>    9.8169    0.0000 </r>
       <r>   11.1704    0.0000 </r>
       <r>   10.2709    0.0000 </r>
       <r>   10.5846    0.0000 </r>
       <r>   11.4431    0.0000 </r>
       <r>    9.7357    0.0000 </r>
       <r>    9.9260    0.0000 </r>
       <r>   10.1631    0.0000 </r>
       <r>    9.5885    0.0000 </r>
       <r>   10.2496    0.0000 </r>
       <r>   11.3353    0.0000 </r>
       <r>   10.4593   -0.0377 </r>
       <r>   10.6113    0.0000 </r>
       <r>   11.0263    0.0000 </r>
       <r>   10.1566    0.0000 </r>
       <r>   10.3641    0.0000 </r>
       <r>    9.3044    0.0000 </r>
       <r>   10.1094    0.0000 </r>
       <r>   12.2290    0.0000 </r>
       <r>   10.9050    0.0000 </r>
       <r>   11.5700    0.0000 </r>
       <r>   11.1077    0.0000 </r>
       <r>   11.9880    0.0000 </r>
       <r>   10.1189    0.0000 </r>
       <r>   12.9647    0.0000 </r>
       <r>   11.4934    0.0000 </r>
       <r>   11.0922    0.0000 </r>
       <r>   11.2034    0.0000 </r>
       <r>   11.1646    0.0000 </r>
       <r>   11.2596    0.0000 </r>
       <r>   13.5770    0.0000 </r>
       <r>   11.3090    0.0000 </r>
       <r>   11.0193    0.0000 </r>
       <r>   11.6251    0.0000 </r>
       <r>   11.9235    0.0000 </r>
       <r>   12.5006    0.0000 </r>
       <r>   12.1850    0.0000 </r>
       <r>   12.4426    0.0000 </r>
       <r>   11.8432    0.0000 </r>
       <r>   11.9338    0.0000 </r>
       <r>   12.6692    0.0000 </r>
       <r>   13.0278    0.0000 </r>
       <r>   13.5702    0.0000 </r>
       <r>   13.8682    0.0000 </r>
       <r>   15.8703    0.0000 </r>
       <r>   12.0068    0.0000 </r>
       <r>   13.4459    0.0000 </r>
       <r>   13.7463    0.0000 </r>
       <r>   13.5014    0.0000 </r>
       <r>   14.0119    0.0000 </r>
       <r>   15.0930    0.0000 </r>
       <r>   15.4451    0.0000 </r>
       <r>   15.6802    0.0000 </r>
       <r>   15.0302    0.0000 </r>
       <r>   13.8727    0.0000 </r>
       <r>   12.8411    0.0000 </r>
       <r>   14.5117    0.0000 </r>
       <r>   15.0803    0.0000 </r>
       <r>   15.0515    0.0000 </r>
       <r>   16.0486    0.0000 </r>
       <r>   15.4545    0.0000 </r>
       <r>   16.0444    0.0000 </r>
       <r>   15.3401    0.0000 </r>
       <r>   15.0291    0.0000 </r>
       <r>   14.9733    0.0000 </r>
      </set>
      <set comment="kpoint 2">
       <r>  -68.5500    1.0000 </r>
       <r>  -68.5532    1.0000 </r>
       <r>  -68.5659    1.0000 </r>
       <r>  -68.5622    1.0000 </r>
       <r>  -68.5520    1.0000 </r>
       <r>  -68.5617    1.0000 </r>
       <r>  -68.5346    1.0000 </r>
       <r>  -68.5353    1.0000 </r>
       <r>  -68.3880    1.0000 </r>
       <r>  -68.3909    1.0000 </r>
       <r>  -68.3678    1.0000 </r>
       <r>  -68.3765    1.0000 </r>
       <r>  -53.3824    1.0000 </r>
       <r>  -53.3846    1.0000 </r>
       <r>  -53.3843    1.0000 </r>
       <r>  -53.3793    1.0000 </r>
       <r>  -53.3536    1.0000 </r>
       <r>  -53.3541    1.0000 </r>
       <r>  -53.3071    1.0000 </r>
       <r>  -53.3064    1.0000 </r>
       <r>  -53.2612    1.0000 </r>
       <r>  -53.2612    1.0000 </r>
       <r>  -53.2402    1.0000 </r>
       <r>  -53.2388    1.0000 </r>
       <r>  -45.4552    1.0000 </r>
       <r>  -45.4551    1.0000 </r>
       <r>  -45.4550    1.0000 </r>
       <r>  -45.4550    1.0000 </r>
       <r>  -45.1602    1.0000 </r>
       <r>  -45.1593    1.0000 </r>
       <r>  -45.1593    1.0000 </r>
       <r>  -45.1598    1.0000 </r>
       <r>  -45.1314    1.0000 </r>
       <r>  -45.1314    1.0000 </r>
       <r>  -45.1313    1.0000 </r>
       <r>  -45.1313    1.0000 </r>
       <r>  -36.2523    1.0000 </r>
       <r>  -36.2505    1.0000 </r>
       <r>  -36.2517    1.0000 </r>
       <r>  -36.2494    1.0000 </r>
       <r>  -36.2412    1.0000 </r>
       <r>  -36.2417    1.0000 </r>
       <r>  -36.2390    1.0000 </r>
       <r>  -36.2396    1.0000 </r>
       <r>  -36.2356    1.0000 </r>
       <r>  -36.2368    1.0000 </r>
       <r>  -36.2361    1.0000 </r>
       <r>  -36.2355    1.0000 </r>
       <r>  -27.9924    1.0000 </r>
       <r>  -27.9921    1.0000 </r>
       <r>  -27.9907    1.0000 </r>
       <r>  -27.9903    1.0000 </r>
       <r>  -26.2889    1.0000 </r>
       <r>  -26.2893    1.0000 </r>
       <r>  -26.2925    1.0000 </r>
       <r>  -26.2910    1.0000 </r>
       <r>  -26.2196    1.0000 </r>
       <r>  -26.2225    1.0000 </r>
       <r>  -26.2174    1.0000 </r>
       <r>  -26.2178    1.0000 </r>
       <r>  -26.1111    1.0000 </r>
       <r>  -26.1097    1.0000 </r>
       <r>  -26.1070    1.0000 </r>
       <r>  -26.1117    1.0000 </r>
[...]
       <r>     8.9102     8.3132   189.5680 </r>
       <r>     9.2299    10.4081   193.4386 </r>
       <r>     9.5496    11.0398   197.9725 </r>
       <r>     9.8693    16.9903   203.6192 </r>
       <r>    10.1890    19.1604   210.9368 </r>
       <r>    10.5087    21.6891   219.0755 </r>
       <r>    10.8284    17.6333   225.4796 </r>
       <r>    11.1481    23.5424   232.9526 </r>
       <r>    11.4678    22.9961   241.6608 </r>
       <r>    11.7875    16.0926   248.6441 </r>
       <r>    12.1072    13.4539   254.1198 </r>
       <r>    12.4269    11.0748   258.2833 </r>
       <r>    12.7466     3.8915   260.5843 </r>
       <r>    13.0663     3.2861   262.1788 </r>
       <r>    13.3860     3.6241   263.6708 </r>
       <r>    13.7057     4.2301   265.4990 </r>
       <r>    14.0254     5.5807   267.1824 </r>
       <r>    14.3451     4.2942   268.9155 </r>
       <r>    14.6648     5.1907   270.5816 </r>
       <r>    14.9845     5.3362   272.6430 </r>
       <r>    15.3042     6.1622   274.8068 </r>
       <r>    15.6238     5.9081   276.9809 </r>
       <r>    15.9435     5.4802   279.2200 </r>
       <r>    16.2632     4.5754   281.1434 </r>
       <r>    16.5829     4.7175   282.8427 </r>
       <r>    16.9026     3.5336   284.5121 </r>
       <r>    17.2223     2.6891   285.7979 </r>
       <r>    17.5420     1.1147   286.5545 </r>
       <r>    17.8617     0.5553   286.8313 </r>
       <r>    18.1814     0.0000   287.0000 </r>
       <r>    18.5011     0.0000   287.0000 </r>
       <r>    18.8208     0.0000   287.0000 </r>
       <r>    19.1405     0.0000   287.0000 </r>
       <r>    19.4602     0.0000   287.0000 </r>
       <r>    19.7799     0.0000   287.0000 </r>
       <r>    20.0996     0.0000   287.0000 </r>
       <r>    20.4193     0.0000   287.0000 </r>
       <r>    20.7390     0.0000   287.0000 </r>
       <r>    21.0587     0.0000   287.0000 </r>
       <r>    21.3784     0.0000   287.0000 </r>
       <r>    21.6981     0.0000   287.0000 </r>
       <r>    22.0178     0.0000   287.0000 </r>
       <r>    22.3375     0.0000   287.0000 </r>
       <r>    22.6572     0.0000   287.0000 </r>
       <r>    22.9769     0.0000   287.0000 </r>
      </set>
      <set comment="spin 2">
       <r>   -72.9323     0.0000     0.0000 </r>
       <r>   -72.6126     0.0000     0.0000 </r>
       <r>   -72.2929     0.0000     0.0000 </r>
       <r>   -71.9732     0.0000     0.0000 </r>
       <r>   -71.6535     0.0000     0.0000 </r>
       <r>   -71.3338     0.0000     0.0000 </r>
       <r>   -71.0141     0.0000     0.0000 </r>
       <r>   -70.6944     0.0000     0.0000 </r>
       <r>   -70.3747     0.0000     0.0000 </r>
       <r>   -70.0550     0.0000     0.0000 </r>
       <r>   -69.7353     0.0000     0.0000 </r>
       <r>   -69.4156     0.0000     0.0000 </r>
       <r>   -69.0959     0.0000     0.0000 </r>
       <r>   -68.7762     0.0000     0.0000 </r>
       <r>   -68.4566     0.0000     8.0000 </r>
       <r>   -68.1369     0.0000    12.0000 </r>
       <r>   -67.8172     0.0000    12.0000 </r>
       <r>   -67.4975     0.0000    12.0000 </r>
       <r>   -67.1778     0.0000    12.0000 </r>
       <r>   -66.8581     0.0000    12.0000 </r>
       <r>   -66.5384     0.0000    12.0000 </r>
       <r>   -66.2187     0.0000    12.0000 </r>
       <r>   -65.8990     0.0000    12.0000 </r>
       <r>   -65.5793     0.0000    12.0000 </r>
       <r>   -65.2596     0.0000    12.0000 </r>
       <r>   -64.9399     0.0000    12.0000 </r>
       <r>   -64.6202     0.0000    12.0000 </r>
       <r>   -64.3005     0.0000    12.0000 </r>
       <r>   -63.9808     0.0000    12.0000 </r>
       <r>   -63.6611     0.0000    12.0000 </r>
       <r>   -63.3414     0.0000    12.0000 </r>
       <r>   -63.0217     0.0000    12.0000 </r>
       <r>   -62.7020     0.0000    12.0000 </r>
       <r>   -62.3823     0.0000    12.0000 </r>
       <r>   -62.0626     0.0000    12.0000 </r>
       <r>   -61.7429     0.0000    12.0000 </r>
       <r>   -61.4232     0.0000    12.0000 </r>
       <r>   -61.1035     0.0000    12.0000 </r>
       <r>   -60.7838     0.0000    12.0000 </r>
       <r>   -60.4641     0.0000    12.0000 </r>
       <r>   -60.1444     0.0000    12.0000 </r>
       <r>   -59.8247     0.0000    12.0000 </r>
       <r>   -59.5050     0.0000    12.0000 </r>
       <r>   -59.1853     0.0000    12.0000 </r>
       <r>   -58.8656     0.0000    12.0000 </r>
       <r>   -58.5459     0.0000    12.0000 </r>
       <r>   -58.2262     0.0000    12.0000 </r>
       <r>   -57.9065     0.0000    12.0000 </r>
       <r>   -57.5868     0.0000    12.0000 </r>
       <r>   -57.2671     0.0000    12.0000 </r>
       <r>   -56.9474     0.0000    12.0000 </r>
       <r>   -56.6277     0.0000    12.0000 </r>
       <r>   -56.3081     0.0000    12.0000 </r>
       <r>   -55.9884     0.0000    12.0000 </r>
       <r>   -55.6687     0.0000    12.0000 </r>
       <r>   -55.3490     0.0000    12.0000 </r>
       <r>   -55.0293     0.0000    12.0000 </r>
       <r>   -54.7096     0.0000    12.0000 </r>
       <r>   -54.3899     0.0000    12.0000 </r>
       <r>   -54.0702     0.0000    12.0000 </r>
       <r>   -53.7505     0.0000    12.0000 </r>
       <r>   -53.4308     0.0000    12.0000 </r>
       <r>   -53.1111    56.4504    19.2356 </r>
       <r>   -52.7914     0.0000    24.0000 </r>
       <r>   -52.4717     0.0000    24.0000 </r>
       <r>   -52.1520     0.0000    24.0000 </r>
       <r>   -51.8323     0.0000    24.0000 </r>
       <r>   -51.5126     0.0000    24.0000 </r>
       <r>   -51.1929     0.0000    24.0000 </r>
       <r>   -50.8732     0.0000    24.0000 </r>
       <r>   -50.5535     0.0000    24.0000 </r>
       <r>   -50.2338     0.0000    24.0000 </r>
       <r>   -49.9141     0.0000    24.0000 </r>
       <r>   -49.5944     0.0000    24.0000 </r>
       <r>   -49.2747     0.0000    24.0000 </r>
       <r>   -48.9550     0.0000    24.0000 </r>
       <r>   -48.6353     0.0000    24.0000 </r>
       <r>   -48.3156     0.0000    24.0000 </r>
       <r>   -47.9959     0.0000    24.0000 </r>
       <r>   -47.6762     0.0000    24.0000 </r>
       <r>   -47.3565     0.0000    24.0000 </r>
       <r>   -47.0368     0.0000    24.0000 </r>
       <r>   -46.7171     0.0000    24.0000 </r>
       <r>   -46.3974     0.0000    24.0000 </r>
       <r>   -46.0777     0.0000    24.0000 </r>
       <r>   -45.7580     0.0000    24.0000 </r>
       <r>   -45.4383     0.0000    28.0000 </r>
       <r>   -45.1186     0.0000    36.0000 </r>
       <r>   -44.7989     0.0000    36.0000 </r>
       <r>   -44.4793     0.0000    36.0000 </r>
       <r>   -44.1596     0.0000    36.0000 </r>
       <r>   -43.8399     0.0000    36.0000 </r>
       <r>   -43.5202     0.0000    36.0000 </r>
       <r>   -43.2005     0.0000    36.0000 </r>
       <r>   -42.8808     0.0000    36.0000 </r>
       <r>   -42.5611     0.0000    36.0000 </r>
       <r>   -42.2414     0.0000    36.0000 </r>
       <r>   -41.9217     0.0000    36.0000 </r>
       <r>   -41.6020     0.0000    36.0000 </r>
       <r>   -41.2823     0.0000    36.0000 </r>
       <r>   -40.9626     0.0000    36.0000 </r>
       <r>   -40.6429     0.0000    36.0000 </r>
       <r>   -40.3232     0.0000    36.0000 </r>
       <r>   -40.0035     0.0000    36.0000 </r>
       <r>   -39.6838     0.0000    36.0000 </r>
       <r>   -39.3641     0.0000    36.0000 </r>
       <r>   -39.0444     0.0000    36.0000 </r>
       <r>   -38.7247     0.0000    36.0000 </r>
       <r>   -38.4050     0.0000    36.0000 </r>
       <r>   -38.0853     0.0000    36.0000 </r>
       <r>   -37.7656     0.0000    36.0000 </r>
       <r>   -37.4459     0.0000    36.0000 </r>
       <r>   -37.1262     0.0000    36.0000 </r>
       <r>   -36.8065     0.0000    36.0000 </r>
       <r>   -36.4868     0.0000    36.0000 </r>
       <r>   -36.1671     0.0000    48.0000 </r>
       <r>   -35.8474     0.0000    48.0000 </r>
       <r>   -35.5277     0.0000    48.0000 </r>
       <r>   -35.2080     0.0000    48.0000 </r>
       <r>   -34.8883     0.0000    48.0000 </r>
       <r>   -34.5686     0.0000    48.0000 </r>
       <r>   -34.2489     0.0000    48.0000 </r>
       <r>   -33.9292     0.0000    48.0000 </r>
       <r>   -33.6095     0.0000    48.0000 </r>
       <r>   -33.2898     0.0000    48.0000 </r>
       <r>   -32.9701     0.0000    48.0000 </r>
       <r>   -32.6504     0.0000    48.0000 </r>
       <r>   -32.3308     0.0000    48.0000 </r>
       <r>   -32.0111     0.0000    48.0000 </r>
       <r>   -31.6914     0.0000    48.0000 </r>
       <r>   -31.3717     0.0000    48.0000 </r>
       <r>   -31.0520     0.0000    48.0000 </r>
       <r>   -30.7323     0.0000    48.0000 </r>
       <r>   -30.4126     0.0000    48.0000 </r>
       <r>   -30.0929     0.0000    48.0000 </r>
       <r>   -29.7732     0.0000    48.0000 </r>
       <r>   -29.4535     0.0000    48.0000 </r>
       <r>   -29.1338     0.0000    48.0000 </r>
       <r>   -28.8141     0.0000    48.0000 </r>
       <r>   -28.4944     0.0000    48.0000 </r>
       <r>   -28.1747     0.0000    48.0000 </r>
       <r>   -27.8550     0.0000    52.0000 </r>
       <r>   -27.5353     0.0000    52.0000 </r>
       <r>   -27.2156     0.0000    52.0000 </r>
       <r>   -26.8959     0.0000    52.0000 </r>
       <r>   -26.5762     0.0000    52.0000 </r>
       <r>   -26.2565     0.0000    52.0000 </r>
       <r>   -25.9368     0.0000    64.0000 </r>
       <r>   -25.6171     0.0000    64.0000 </r>
       <r>   -25.2974     0.0000    64.0000 </r>
       <r>   -24.9777     0.0000    64.0000 </r>
       <r>   -24.6580     0.0000    64.0000 </r>
       <r>   -24.3383     0.0000    64.0000 </r>
       <r>   -24.0186     0.0000    64.0000 </r>
       <r>   -23.6989     0.0000    64.0000 </r>
       <r>   -23.3792     0.0000    64.0000 </r>
       <r>   -23.0595     0.0000    64.0000 </r>
       <r>   -22.7398     0.0000    64.0000 </r>
       <r>   -22.4201     0.0000    64.0000 </r>
       <r>   -22.1004     0.0000    64.0000 </r>
       <r>   -21.7807     0.0000    64.0000 </r>
       <r>   -21.4610     0.0000    64.0000 </r>
       <r>   -21.1413     0.0000    64.0000 </r>
       <r>   -20.8216     0.0000    64.0000 </r>
       <r>   -20.5020     0.0000    64.0000 </r>
       <r>   -20.1823     0.0000    64.0000 </r>
       <r>   -19.8626     0.0000    64.0000 </r>
       <r>   -19.5429     0.0000    64.0000 </r>
       <r>   -19.2232     0.0000    64.0000 </r>
       <r>   -18.9035     0.0000    64.0000 </r>
       <r>   -18.5838     0.0000    64.0000 </r>
       <r>   -18.2641     0.0000    64.0000 </r>
       <r>   -17.9444     0.0000    64.0000 </r>
       <r>   -17.6247     0.0000    64.0000 </r>
       <r>   -17.3050     0.0000    64.0000 </r>
       <r>   -16.9853     0.0000    64.0000 </r>
       <r>   -16.6656     0.0000    64.0000 </r>
       <r>   -16.3459     0.0000    64.0000 </r>
       <r>   -16.0262     0.0000    64.0000 </r>
       <r>   -15.7065     0.0000    64.0000 </r>
       <r>   -15.3868     0.0000    64.0000 </r>
       <r>   -15.0671     0.0000    64.0000 </r>
       <r>   -14.7474     0.0000    64.0000 </r>
       <r>   -14.4277     0.0000    64.0000 </r>
       <r>   -14.1080     0.0000    64.0000 </r>
       <r>   -13.7883     8.1892    64.7133 </r>
       <r>   -13.4686    15.4418    70.7032 </r>
       <r>   -13.1489     0.5672    73.5495 </r>
       <r>   -12.8292     0.6152    73.7293 </r>
       <r>   -12.5095     1.6185    74.1369 </r>
       <r>   -12.1898     1.8920    74.8825 </r>
       <r>   -11.8701     3.9631    75.8362 </r>
       <r>   -11.5504     2.7221    76.8933 </r>
       <r>   -11.2307     4.0808    78.0318 </r>
       <r>   -10.9110     3.5315    79.4374 </r>
       <r>   -10.5913     3.8730    80.7336 </r>
       <r>   -10.2716     6.6918    82.5209 </r>
       <r>    -9.9519     7.4280    84.6363 </r>
       <r>    -9.6322     5.5758    86.8438 </r>
       <r>    -9.3125     4.4574    88.3967 </r>
       <r>    -8.9928     4.0968    89.6161 </r>
       <r>    -8.6731     3.6353    91.2187 </r>
       <r>    -8.3535     3.6540    92.4748 </r>
       <r>    -8.0338     3.8801    93.8810 </r>
       <r>    -7.7141     2.2089    95.2637 </r>
       <r>    -7.3944     1.0921    95.9282 </r>
       <r>    -7.0747     1.8149    96.5894 </r>
       <r>    -6.7550     2.8580    97.4269 </r>
       <r>    -6.4353     3.6973    99.0229 </r>
       <r>    -6.1156     5.0046   100.6417 </r>
       <r>    -5.7959     7.2980   102.4514 </r>
       <r>    -5.4762     3.7035   104.2678 </r>
       <r>    -5.1565     2.7900   105.6538 </r>
       <r>    -4.8368     2.1519   106.6572 </r>
       <r>    -4.5171     1.7576   107.3680 </r>
       <r>    -4.1974     0.7015   107.9544 </r>
       <r>    -3.8777     1.0106   108.1562 </r>
       <r>    -3.5580     0.5384   108.5200 </r>
       <r>    -3.2383     0.4788   108.7392 </r>
       <r>    -2.9186     0.4866   108.8935 </r>
       <r>    -2.5989     0.9669   109.2180 </r>
       <r>    -2.2792     2.5012   109.9852 </r>
       <r>    -1.9595     4.0604   111.3030 </r>
       <r>    -1.6398     7.5302   113.3311 </r>
       <r>    -1.3201    21.1364   117.8606 </r>
       <r>    -1.0004    14.7468   123.0548 </r>
       <r>    -0.6807     7.2327   127.2776 </r>
       <r>    -0.3610     3.8889   129.3130 </r>
       <r>    -0.0413     4.0031   130.9140 </r>
       <r>     0.2784     4.5049   132.7789 </r>
       <r>     0.5981     6.4411   134.9350 </r>
       <r>     0.9178     5.4657   136.8331 </r>
       <r>     1.2375     5.6533   138.7548 </r>
       <r>     1.5572     7.0101   141.1678 </r>
       <r>     1.8769     4.9249   143.0809 </r>
       <r>     2.1966     3.5929   144.6973 </r>
       <r>     2.5163     2.8385   145.8601 </r>
       <r>     2.8360     6.3889   147.1582 </r>
       <r>     3.1557     2.0295   148.4075 </r>
       <r>     3.4753     2.2480   149.2745 </r>
       <r>     3.7950     5.1154   150.7650 </r>
       <r>     4.1147     7.1783   153.0096 </r>
       <r>     4.4344     7.6855   155.4135 </r>
       <r>     4.7541    10.2870   158.7564 </r>
       <r>     5.0738    12.2003   162.0949 </r>
       <r>     5.3935     9.7307   165.9004 </r>
       <r>     5.7132     8.1332   169.1553 </r>
       <r>     6.0329     8.5501   173.1584 </r>
       <r>     6.3526     5.3453   175.7301 </r>
       <r>     6.6723     2.9018   177.3014 </r>
       <r>     6.9920     3.0810   178.7305 </r>
       <r>     7.3117     2.0740   179.6966 </r>
       <r>     7.6314     3.3121   180.9993 </r>
       <r>     7.9511     5.2736   182.7186 </r>
       <r>     8.2708     6.6536   184.9198 </r>
       <r>     8.5905     5.8076   187.0137 </r>
       <r>     8.9102    13.1404   190.5969 </r>
       <r>     9.2299     7.8510   193.8928 </r>
       <r>     9.5496    22.7232   197.5349 </r>
       <r>     9.8693    13.0746   203.0250 </r>
       <r>    10.1890    25.3863   210.1106 </r>
       <r>    10.5087    20.7613   216.5546 </r>
       <r>    10.8284    15.8274   222.2542 </r>
       <r>    11.1481    20.1814   229.5939 </r>
       <r>    11.4678    17.7917   237.4593 </r>
       <r>    11.7875    15.4975   243.2439 </r>
       <r>    12.1072    17.3455   249.5604 </r>
       <r>    12.4269    11.5061   254.7791 </r>
       <r>    12.7466     8.7904   258.8988 </r>
       <r>    13.0663     5.0291   261.4963 </r>
       <r>    13.3860     3.7447   263.1268 </r>
       <r>    13.7057     3.6189   264.4215 </r>
       <r>    14.0254     4.7699   266.0449 </r>
       <r>    14.3451     7.6004   267.9197 </r>
       <r>    14.6648     6.6332   270.3588 </r>
       <r>    14.9845     5.0412   272.3653 </r>
       <r>    15.3042     5.7322   274.3620 </r>
       <r>    15.6238     6.1492   276.8221 </r>
       <r>    15.9435     5.3803   278.9033 </r>
       <r>    16.2632     5.5632   280.8341 </r>
       <r>    16.5829     6.2944   283.0418 </r>
       <r>    16.9026     2.8624   284.8024 </r>
       <r>    17.2223     2.7976   285.8430 </r>
       <r>    17.5420     1.1313   286.4885 </r>
       <r>    17.8617     0.4463   286.8215 </r>
       <r>    18.1814     0.1982   286.9109 </r>
       <r>    18.5011     0.0745   286.9604 </r>
       <r>    18.8208     0.0000   287.0000 </r>
       <r>    19.1405     0.0000   287.0000 </r>
       <r>    19.4602     0.0000   287.0000 </r>
       <r>    19.7799     0.0000   287.0000 </r>
       <r>    20.0996     0.0000   287.0000 </r>
       <r>    20.4193     0.0000   287.0000 </r>
       <r>    20.7390     0.0000   287.0000 </r>
       <r>    21.0587     0.0000   287.0000 </r>
       <r>    21.3784     0.0000   287.0000 </r>
       <r>    21.6981     0.0000   287.0000 </r>
       <r>    22.0178     0.0000   287.0000 </r>
       <r>    22.3375     0.0000   287.0000 </r>
       <r>    22.6572     0.0000   287.0000 </r>
       <r>    22.9769     0.0000   287.0000 </r>
      </set>
     </set>
    </array>
   </total>
  </dos>
 </calculation>
 <structure name="finalpos" >
  <crystal>
   <varray name="basis" >
    <v>       3.76700000       0.00000000       0.00000000 </v>
    <v>       0.00000000      10.58100000       0.00000000 </v>
    <v>       0.00000000       0.00000000      12.10800000 </v>
   </varray>
   <i name="volume">    482.60825572 </i>
   <varray name="rec_basis" >
    <v>       0.26546323       0.00000000       0.00000000 </v>
    <v>       0.00000000       0.09450903       0.00000000 </v>
    <v>       0.00000000       0.00000000       0.08259002 </v>
   </varray>
  </crystal>
  <varray name="positions" >
   <v>       0.25000000       0.60500000       0.39400000 </v>
   <v>       0.75000000       0.39500000       0.60600000 </v>
   <v>       0.75000000       0.10500000       0.10600000 </v>
   <v>       0.25000000       0.89500000       0.89400000 </v>
   <v>       0.75000000       0.77220000       0.63110000 </v>
   <v>       0.25000000       0.22780000       0.36890000 </v>
   <v>       0.25000000       0.42160000       0.11090000 </v>
   <v>       0.75000000       0.57840000       0.88910000 </v>
   <v>       0.75000000       0.92160000       0.38910000 </v>
   <v>       0.25000000       0.07840000       0.61090000 </v>
   <v>       0.25000000       0.27220000       0.86890000 </v>
   <v>       0.75000000       0.72780000       0.13110000 </v>
   <v>       0.25000000       0.40410000       0.49010000 </v>
   <v>       0.75000000       0.72090000       0.32490000 </v>
   <v>       0.75000000       0.77910000       0.82490000 </v>
   <v>       0.25000000       0.27910000       0.67510000 </v>
   <v>       0.25000000       0.62090000       0.19790000 </v>
   <v>       0.75000000       0.37910000       0.80210000 </v>
   <v>       0.75000000       0.12090000       0.30210000 </v>
   <v>       0.25000000       0.87910000       0.69790000 </v>
   <v>       0.25000000       0.03370000       0.43390000 </v>
   <v>       0.75000000       0.96630000       0.56610000 </v>
   <v>       0.75000000       0.53370000       0.06610000 </v>
   <v>       0.25000000       0.46630000       0.93390000 </v>
   <v>       0.75000000       0.90410000       0.00990000 </v>
   <v>       0.25000000       0.09590000       0.99010000 </v>
   <v>       0.25000000       0.70440000       0.98810000 </v>
   <v>       0.75000000       0.29560000       0.01190000 </v>
   <v>       0.75000000       0.20440000       0.51190000 </v>
   <v>       0.25000000       0.79560000       0.48810000 </v>
   <v>       0.25000000       0.22090000       0.17510000 </v>
   <v>       0.75000000       0.59590000       0.50990000 </v>
   <v>       0.25000000       0.58165000       0.70409000 </v>
   <v>       0.75000000       0.41835000       0.29591000 </v>
   <v>       0.75000000       0.08165000       0.79591000 </v>
   <v>       0.25000000       0.91835000       0.20409000 </v>
  </varray>
 </structure>
</modeling>
